<LesHouchesEvents version="3.0">
  <!--
  <scalesfunctionalform>
    muR  FxFx merging scale
    muF1 FxFx merging scale
    muF2 FxFx merging scale
    QES  H_T/2 := sum_i mT(i)/2, i=final state
  </scalesfunctionalform>
PYTHIA8   
  -->
  <header>
        9
  </header>
  <init>
   2212   2212 0.65000000D+04 0.65000000D+04 -1 -1   325300   325300 -4   1
 0.41317255D+04 0.17716013D+02 0.56142148D+03     66
  </init>
  <event npLO=' -1 ' npNLO=' 0 '>
  5     66 0.56142148E+03 0.39982017E+02 0.75582076E-02 0.11774616E+00
       -4 -1    0    0    0  501  0.00000000000000000E+00  0.00000000000000000E+00  0.33360560753755937E+03  0.33360560753755942E+03  0.00000000000000000E+00 0.0000E+00 0.9000E+01
        3 -1    0    0  501    0  0.00000000000000000E+00  0.00000000000000000E+00 -0.48450865459553327E+01  0.48450865459553540E+01  0.00000000000000000E+00 0.0000E+00 0.9000E+01
      -24  2    1    2    0    0  0.00000000000000000E+00  0.00000000000000000E+00  0.32876052099160404E+03  0.33845069408351469E+03  0.80407662339741734E+02 0.0000E+00 0.0000E+00
       15  1    3    3    0    0 -0.39921435136341465E+02 -0.18061727403947847E+01  0.14670880147811681E+03  0.15206450408776777E+03  0.17769999999999999E+01 0.0000E+00 0.9000E+01
      -16  1    3    3    0    0  0.39921435136341465E+02  0.18061727403947847E+01  0.18205171951348720E+03  0.18638618999574695E+03  0.00000000000000000E+00 0.0000E+00 0.9000E+01
#aMCatNLO 1  0  0  1  1 0.11707676D+03 0.00000000D+00  -5  5  0 0.00000000D+00 0.00000000D+00 0.00000000D+00 0.00000000D+00 0.00000000D+00
  <mgrwgt>
 0.1004155628D+04    3    2    0
 0.402038311698711D+02 0.000000000000000D+00 0.000000000000000D+00 0.402038311698711D+02
 0.402038311698711D+02 0.000000000000000D+00 0.000000000000000D+00 -.402038311698711D+02
 0.402234669166900D+02 -.399214351363415D+02 -.180617274039478D+01 -.421738289520730D+01
 0.401841954230522D+02 0.399214351363415D+02 0.180617274039478D+01 0.421738289520730D+01
 0.000000000000000D+00 0.000000000000000D+00 -.000000000000000D+00 -.000000000000000D+00
 0.523771864549217D+02 0.000000000000000D+00 0.000000000000000D+00 0.523771864549217D+02
 0.131700456490384D+03 0.000000000000000D+00 0.000000000000000D+00 -.131700456490384D+03
 0.525124265117969D+02 -.477091831269273D+02 0.214579760469946D+02 -.421738289520730D+01
 0.399968784781688D+02 0.331880121425923D+02 0.219207622936741D+02 0.421738289520730D+01
 0.915683379553402D+02 0.145211709843350D+02 -.433787383406687D+02 -.793232700354625D+02
0.320304614555D+00 0.000000000000D+00 0.000000000000D+00 0.647702105254D+01 0.000000000000D+00  5 -4 3 15 -16 21 0 0.51323940D-01 0.74539793D-03 0.15985617D+04 0.64653922D+04 0.64653922D+04 0.12294772D+01  1  2  2  1  5  1       -4 0.101446168077D+04 0.100000000000D+01
-.177940385680D-01 0.000000000000D+00 -.123005405803D-02 0.647702105254D+01 0.000000000000D+00  5 -4 3 15 -16 21 2 0.51323940D-01 0.74539793D-03 0.15985617D+04 0.64653922D+04 0.64653922D+04 0.12294772D+01  1  2  3  1  5  1       -4 -.934188392519D+02 0.100000000000D+01
0.173601886091D-01 0.000000000000D+00 0.000000000000D+00 0.647702105254D+01 0.000000000000D+00  5 -4 3 15 -16 21 2 0.51323940D-01 0.74539793D-03 0.15985617D+04 0.64653922D+04 0.64653922D+04 0.12294772D+01  1  2 15  1  5  1       -4 0.831127860976D+02 0.100000000000D+01
  </mgrwgt>
  </event>
  <event npLO=' -1 ' npNLO=' 0 '>
  5     66 0.56142148E+03 0.30767199E+02 0.75582076E-02 0.12003170E+00
       -2 -1    0    0    0  501  0.00000000000000000E+00  0.00000000000000000E+00  0.27201099634136699E+03  0.27201099634136699E+03  0.00000000000000000E+00 0.0000E+00 0.9000E+01
        1 -1    0    0  501    0  0.00000000000000000E+00  0.00000000000000000E+00 -0.58488959775141893E+01  0.58488959775141893E+01  0.00000000000000000E+00 0.0000E+00 0.9000E+01
      -24  2    1    2    0    0  0.00000000000000000E+00  0.00000000000000000E+00  0.26616210036385274E+03  0.27785989231888118E+03  0.79773780713732179E+02 0.0000E+00 0.0000E+00
       15  1    3    3    0    0 -0.30116938569196403E+02  0.61654138470174633E+01  0.44732415955155474E+02  0.54306436845652073E+02  0.17769999999999999E+01 0.0000E+00 0.9000E+01
      -16  1    3    3    0    0  0.30116938569196403E+02 -0.61654138470174633E+01  0.22142968440869728E+03  0.22355345547322912E+03  0.00000000000000000E+00 0.0000E+00 0.9000E+01
#aMCatNLO 1  0  0  1  2 0.74671437D+02 0.00000000D+00  -5  5  0 0.00000000D+00 0.00000000D+00 0.00000000D+00 0.00000000D+00 0.00000000D+00
  <mgrwgt>
 0.2900248576D+04    3    2    0
 0.398868903568659D+02 0.000000000000000D+00 0.000000000000000D+00 0.398868903568659D+02
 0.398868903568659D+02 0.000000000000000D+00 0.000000000000000D+00 -.398868903568659D+02
 0.399066821291234D+02 -.301169385691964D+02 0.616541384701746D+01 -.253839168149667D+02
 0.398670985846085D+02 0.301169385691964D+02 -.616541384701746D+01 0.253839168149667D+02
 0.000000000000000D+00 -.000000000000000D+00 -.000000000000000D+00 -.000000000000000D+00
 0.420691679271565D+02 0.000000000000000D+00 0.000000000000000D+00 0.420691679271565D+02
 0.955936274318030D+02 0.000000000000000D+00 0.000000000000000D+00 -.955936274318030D+02
 0.354845958093045D+02 -.228978433948951D+02 0.934581969350015D+01 -.253839168149667D+02
 0.460553492847994D+02 0.383444463889310D+02 -.254074713462737D+01 0.253839168149667D+02
 0.561228502648557D+02 -.154466029940359D+02 -.680507255887278D+01 -.535244595046464D+02
0.310140149051D+00 0.000000000000D+00 0.000000000000D+00 0.105885411846D+02 0.000000000000D+00  5 -2 1 15 -16 21 0 0.41847846D-01 0.89983015D-03 0.94662052D+03 0.63638561D+04 0.63638561D+04 0.12302279D+01  1  2  2  1  5  1       -2 0.292924434048D+04 0.100000000000D+01
-.158182136039D-01 0.000000000000D+00 -.119101983413D-02 0.105885411846D+02 0.000000000000D+00  5 -2 1 15 -16 21 2 0.41847846D-01 0.89983015D-03 0.94662052D+03 0.63638561D+04 0.63638561D+04 0.12302279D+01  1  2  3  1  5  1       -2 -.258554374078D+03 0.100000000000D+01
0.160592346409D-01 0.000000000000D+00 0.000000000000D+00 0.105885411846D+02 0.000000000000D+00  5 -2 1 15 -16 21 2 0.41847846D-01 0.89983015D-03 0.94662052D+03 0.63638561D+04 0.63638561D+04 0.12302279D+01  1  2 15  1  5  1       -2 0.229558609168D+03 0.100000000000D+01
  </mgrwgt>
  </event>
  <event npLO=' -1 ' npNLO=' 0 '>
  5     66 0.56142148E+03 0.23149125E+02 0.75582076E-02 0.12008067E+00
       -2 -1    0    0    0  501  0.00000000000000000E+00  0.00000000000000000E+00  0.29105592081364975E+01  0.29105592081364762E+01  0.00000000000000000E+00 0.0000E+00 0.9000E+01
        1 -1    0    0  501    0  0.00000000000000000E+00  0.00000000000000000E+00 -0.56457827696741606E+03  0.56457827696741606E+03  0.00000000000000000E+00 0.0000E+00 0.9000E+01
      -24  2    1    2    0    0  0.00000000000000000E+00  0.00000000000000000E+00 -0.56166771775927964E+03  0.56748883617555271E+03  0.81073756610666166E+02 0.0000E+00 0.0000E+00
       15  1    3    3    0    0  0.49816484901521330E+01  0.14803312150776369E+02 -0.54265737719070614E+03  0.54288501694263869E+03  0.17769999999999999E+01 0.0000E+00 0.9000E+01
      -16  1    3    3    0    0 -0.49816484901521330E+01 -0.14803312150776369E+02 -0.19010340568573476E+02  0.24603819232913963E+02  0.00000000000000000E+00 0.0000E+00 0.9000E+01
#aMCatNLO 1  0  0  2  1 0.63813646D+01 0.00000000D+00  -5  5  0 0.00000000D+00 0.00000000D+00 0.00000000D+00 0.00000000D+00 0.00000000D+00
  <mgrwgt>
 0.1511716903D+04    9    2    0
 0.405368783053329D+02 0.000000000000000D+00 0.000000000000000D+00 0.405368783053329D+02
 0.405368783053329D+02 0.000000000000000D+00 0.000000000000000D+00 -.405368783053329D+02
 0.405563527267240D+02 0.498164849015213D+01 0.148033121507764D+02 -.373858950030850D+02
 0.405174038839417D+02 -.498164849015213D+01 -.148033121507764D+02 0.373858950030850D+02
 0.000000000000000D+00 0.000000000000000D+00 0.000000000000000D+00 -.000000000000000D+00
 0.407258926906910D+02 0.000000000000000D+00 0.000000000000000D+00 0.407258926906910D+02
 0.199706943193116D+03 0.000000000000000D+00 0.000000000000000D+00 -.199706943193116D+03
 0.396565337522223D+02 0.249940713687928D+01 0.128658757581272D+02 -.373858950030850D+02
 0.416674834509419D+02 -.752491472718331D+01 -.167883796210783D+02 0.373858950030850D+02
 0.159108818680643D+03 0.502550759030403D+01 0.392250386295113D+01 -.158981050502425D+03
0.757642397179D-01 0.000000000000D+00 0.000000000000D+00 0.137171425502D+02 0.000000000000D+00  5 -2 1 15 -16 21 0 0.44777834D-03 0.86858196D-01 0.24553120D+03 0.65729540D+04 0.65729540D+04 0.12286962D+01  1  2  2  2  5  2        1 0.149264466814D+04 0.100000000000D+01
0.414447532586D-03 0.000000000000D+00 -.290954629699D-03 0.137171425502D+02 0.000000000000D+00  5 -2 1 15 -16 21 2 0.44777834D-03 0.86858196D-01 0.24553120D+03 0.65729540D+04 0.65729540D+04 0.12286962D+01  1  2  3  2  5  2        1 -.161207523241D+02 0.100000000000D+01
0.295768964693D-02 0.000000000000D+00 0.000000000000D+00 0.137171425502D+02 0.000000000000D+00  5 -2 1 15 -16 21 2 0.44777834D-03 0.86858196D-01 0.24553120D+03 0.65729540D+04 0.65729540D+04 0.12286962D+01  1  2 15  2  5  2        1 0.879698334391D+02 0.100000000000D+01
0.671888844996D+01 0.000000000000D+00 0.000000000000D+00 0.137171425502D+02 0.000000000000D+00  5 -2 1 15 -16 21 2 0.44777834D-03 0.42990647D+00 0.36098238D+03 0.66135958D+04 0.66135958D+04 0.12284048D+01  1  2 12  2  5  2        1 0.518961263321D+04 0.100000000000D+01
-.752140280920D+01 0.000000000000D+00 -.300853105920D-01 0.137171425502D+02 0.000000000000D+00  5 -2 1 15 -16 21 2 0.44777834D-03 0.42810874D+00 0.24553120D+03 0.65729540D+04 0.65729540D+04 0.12286962D+01  1  2  5  2  5  2        1 -.601015182980D+04 0.100000000000D+01
0.982875322661D+00 0.000000000000D+00 0.000000000000D+00 0.137171425502D+02 0.712851637878D+01  5 -2 1 15 -16 21 2 0.44986623D-03 0.42791122D+00 0.36098238D+03 0.66135958D+04 0.66135958D+04 0.12284048D+01  1  2 11  2  5  2        1 0.771747888499D+03 0.100000000000D+01
0.130882763868D+01 0.000000000000D+00 0.000000000000D+00 0.137171425502D+02 0.000000000000D+00  5 -2 21 15 -16 -1 2 0.44777834D-03 0.42990647D+00 0.36098238D+03 0.66135958D+04 0.66135958D+04 0.12284048D+01  1  2 12  4  5  2        1 0.454962172502D+03 0.100000000000D+01
-.146170731459D+01 0.000000000000D+00 -.584368116547D-02 0.137171425502D+02 0.000000000000D+00  5 -2 21 15 -16 -1 2 0.44777834D-03 0.42810874D+00 0.24553120D+03 0.65729540D+04 0.65729540D+04 0.12286962D+01  1  2  5  4  5  2        1 -.527466306822D+03 0.100000000000D+01
0.193235584975D+00 0.000000000000D+00 0.000000000000D+00 0.137171425502D+02 0.140136047428D+01  5 -2 21 15 -16 -1 2 0.44986623D-03 0.42791122D+00 0.36098238D+03 0.66135958D+04 0.66135958D+04 0.12284048D+01  1  2 11  4  5  2        1 0.685185957212D+02 0.100000000000D+01
  </mgrwgt>
  </event>
  <event npLO=' -1 ' npNLO=' 0 '>
  5     66 0.56142148E+03 0.30000000E+02 0.75582076E-02 0.11936368E+00
       -2 -1    0    0    0  501  0.00000000000000000E+00  0.00000000000000000E+00  0.65795274661592629E+00  0.65795274661581971E+00  0.00000000000000000E+00 0.0000E+00 0.9000E+01
        1 -1    0    0  501    0  0.00000000000000000E+00  0.00000000000000000E+00 -0.24846888309958704E+04  0.24846888309958704E+04  0.00000000000000000E+00 0.0000E+00 0.9000E+01
      -24  2    1    2    0    0  0.00000000000000000E+00  0.00000000000000000E+00 -0.24840308782492548E+04  0.24853467837424864E+04  0.80865514054861762E+02 0.0000E+00 0.0000E+00
       15  1    3    3    0    0 -0.26199716784426856E+01 -0.11518332374330093E+02 -0.24304453181806557E+04  0.24304746735211111E+04  0.17769999999999999E+01 0.0000E+00 0.9000E+01
      -16  1    3    3    0    0  0.26199716784426856E+01  0.11518332374330093E+02 -0.53585560068598866E+02  0.54872110221375351E+02  0.00000000000000000E+00 0.0000E+00 0.9000E+01
#aMCatNLO 1  0  0  2  1 0.90728549D+02 0.00000000D+00  -5  5  0 0.00000000D+00 0.00000000D+00 0.00000000D+00 0.00000000D+00 0.00000000D+00
  <mgrwgt>
 0.7759374619D+04    3    2    0
 0.404327570274364D+02 0.000000000000000D+00 0.000000000000000D+00 0.404327570274364D+02
 0.404327570274364D+02 0.000000000000000D+00 0.000000000000000D+00 -.404327570274364D+02
 0.404522815987998D+02 -.261997167844269D+01 -.115183323743301D+02 -.386483262932202D+02
 0.404132324560730D+02 0.261997167844269D+01 0.115183323743301D+02 0.386483262932202D+02
 0.000000000000000D+00 -.000000000000000D+00 0.000000000000000D+00 0.000000000000000D+00
 0.111318344443579D+03 0.000000000000000D+00 0.000000000000000D+00 0.111318344443579D+03
 0.444944603690942D+02 0.000000000000000D+00 0.000000000000000D+00 -.444944603690942D+02
 0.440131478579077D+02 0.689197971905416D+01 -.198193578515294D+02 -.386483262932202D+02
 0.405480345681195D+02 0.117373069239658D+02 0.356168615164532D+01 0.386483262932202D+02
 0.712516223866461D+02 -.186292866430199D+02 0.162576716998841D+02 0.668238840744848D+02
0.113410074930D+01 0.000000000000D+00 0.000000000000D+00 0.167496980991D+02 0.000000000000D+00  5 -2 1 15 -16 21 0 0.10122350D-03 0.38225982D+00 0.14111068D+03 0.65392314D+04 0.65392314D+04 0.12289395D+01  1  2  2  2  5  2        1 0.712831671257D+04 0.100000000000D+01
0.519259385350D-01 0.000000000000D+00 -.435524549289D-02 0.167496980991D+02 0.000000000000D+00  5 -2 1 15 -16 21 2 0.10122350D-03 0.38225982D+00 0.14111068D+03 0.65392314D+04 0.65392314D+04 0.12289395D+01  1  2  3  2  5  2        1 0.334329277262D+03 0.100000000000D+01
0.312581379960D-01 0.000000000000D+00 0.000000000000D+00 0.167496980991D+02 0.000000000000D+00  5 -2 1 15 -16 21 2 0.10122350D-03 0.38225982D+00 0.14111068D+03 0.65392314D+04 0.65392314D+04 0.12289395D+01  1  2 15  2  5  2        1 0.296728628895D+03 0.100000000000D+01
  </mgrwgt>
  </event>
  <event npLO=' -1 ' npNLO=' 0 '>
  5     66 0.56142148E+03 0.26616237E+02 0.75582076E-02 0.11914925E+00
       -2 -1    0    0    0  501  0.00000000000000000E+00  0.00000000000000000E+00  0.81483247646502628E+03  0.81483247646502628E+03  0.00000000000000000E+00 0.0000E+00 0.9000E+01
        1 -1    0    0  501    0  0.00000000000000000E+00  0.00000000000000000E+00 -0.21481669576096607E+01  0.21481669576096465E+01  0.00000000000000000E+00 0.0000E+00 0.9000E+01
      -24  2    1    2    0    0  0.00000000000000000E+00  0.00000000000000000E+00  0.81268430950741663E+03  0.81698064342263592E+03  0.83675473155026680E+02 0.0000E+00 0.0000E+00
       15  1    3    3    0    0  0.85125316808988867E+01 -0.26805999782106301E+02  0.10435677524179323E+03  0.10809495403487966E+03  0.17769999999999999E+01 0.0000E+00 0.9000E+01
      -16  1    3    3    0    0 -0.85125316808988867E+01  0.26805999782106301E+02  0.70832753426562340E+03  0.70888568938775620E+03  0.00000000000000000E+00 0.0000E+00 0.9000E+01
#aMCatNLO 1  0  0  1  2 0.23053835D+02 0.00000000D+00  -5  5  0 0.00000000D+00 0.00000000D+00 0.00000000D+00 0.00000000D+00 0.00000000D+00
  <mgrwgt>
 0.4379305566D+04    9    2    0
 0.418377365775134D+02 0.000000000000000D+00 0.000000000000000D+00 0.418377365775134D+02
 0.418377365775134D+02 0.000000000000000D+00 0.000000000000000D+00 -.418377365775134D+02
 0.418566054818705D+02 0.851253168089889D+01 -.268059997821063D+02 -.309482289239363D+02
 0.418188676731563D+02 -.851253168089889D+01 0.268059997821063D+02 0.309482289239363D+02
 0.000000000000000D+00 0.000000000000000D+00 0.000000000000000D+00 0.000000000000000D+00
 0.542174573193253D+02 0.000000000000000D+00 0.000000000000000D+00 0.542174573193253D+02
 0.497592864024682D+02 0.000000000000000D+00 0.000000000000000D+00 -.497592864024682D+02
 0.470229929082572D+02 0.415045331191935D+01 -.351138860969163D+02 -.309482289239363D+02
 0.385387977282573D+02 -.124563662658686D+02 0.192946882913847D+02 0.309482289239363D+02
 0.184149530852791D+02 0.830591295394923D+01 0.158191978055317D+02 0.445817091685707D+01
0.749867676321D+00 0.000000000000D+00 0.000000000000D+00 0.163735670687D+01 0.000000000000D+00  5 -2 1 15 -16 21 0 0.12535884D+00 0.33048722D-03 0.79260290D+03 0.70015848D+04 0.70015848D+04 0.12257195D+01  1  2  2  1  5  1       -2 0.263122447611D+04 0.100000000000D+01
-.337108065936D-01 0.000000000000D+00 -.287968932177D-02 0.163735670687D+01 0.000000000000D+00  5 -2 1 15 -16 21 2 0.12535884D+00 0.33048722D-03 0.79260290D+03 0.70015848D+04 0.70015848D+04 0.12257195D+01  1  2  3  1  5  1       -2 -.210788113370D+03 0.100000000000D+01
0.422563500505D-01 0.000000000000D+00 0.000000000000D+00 0.163735670687D+01 0.000000000000D+00  5 -2 1 15 -16 21 2 0.12535884D+00 0.33048722D-03 0.79260290D+03 0.70015848D+04 0.70015848D+04 0.12257195D+01  1  2 15  1  5  1       -2 0.222765231365D+03 0.100000000000D+01
0.852489707283D-01 0.000000000000D+00 0.000000000000D+00 0.163735670687D+01 0.000000000000D+00  5 -2 1 15 -16 21 2 0.19321102D+00 0.33048722D-03 0.14529934D+04 0.73208200D+04 0.73208200D+04 0.12236313D+01  1  2 12  1  5  1       -2 0.125457780929D+03 0.100000000000D+01
-.380874530644D+00 0.000000000000D+00 0.000000000000D+00 0.163735670687D+01 0.000000000000D+00  5 -2 1 15 -16 21 2 0.12535884D+00 0.33048722D-03 0.79260290D+03 0.70015848D+04 0.70015848D+04 0.12257195D+01  1  2  4  1  5  1       -2 -.200787817306D+04 0.100000000000D+01
-.494130121944D+00 0.000000000000D+00 -.302094633174D+00 0.163735670687D+01 0.000000000000D+00  5 -2 1 15 -16 21 2 0.18285899D+00 0.33048722D-03 0.79260290D+03 0.70015848D+04 0.70015848D+04 0.12257195D+01  1  2  5  1  5  1       -2 -.203534753529D+04 0.100000000000D+01
0.586225335396D+00 0.000000000000D+00 0.281773986835D+00 0.163735670687D+01 0.000000000000D+00  5 -2 1 15 -16 21 2 0.12535884D+00 0.33048722D-03 0.79260290D+03 0.70015848D+04 0.70015848D+04 0.12257195D+01  1  2  6  1  5  1       -2 0.632658106070D+04 0.100000000000D+01
0.430033459517D-02 0.000000000000D+00 0.000000000000D+00 0.163735670687D+01 0.000000000000D+00  5 21 1 15 -16 2 2 0.19321102D+00 0.33048722D-03 0.14529934D+04 0.73208200D+04 0.73208200D+04 0.12236313D+01  1  2 12  3  5  1       -2 0.614182487683D+02 0.100000000000D+01
-.130276808849D-01 0.000000000000D+00 -.137853973934D-01 0.163735670687D+01 0.000000000000D+00  5 21 1 15 -16 2 2 0.18285899D+00 0.33048722D-03 0.79260290D+03 0.70015848D+04 0.70015848D+04 0.12257195D+01  1  2  5  3  5  1       -2 -.734127409929D+03 0.100000000000D+01
  </mgrwgt>
  </event>
  <event npLO=' -1 ' npNLO=' 0 '>
  5     66 0.56142148E+03 0.20279153E+02 0.75582076E-02 0.11997661E+00
       -2 -1    0    0    0  501  0.00000000000000000E+00  0.00000000000000000E+00  0.27090733850456871E+03  0.27090733850456877E+03  0.00000000000000000E+00 0.0000E+00 0.9000E+01
        1 -1    0    0  501    0  0.00000000000000000E+00  0.00000000000000000E+00 -0.61678772660333863E+01  0.61678772660334005E+01  0.00000000000000000E+00 0.0000E+00 0.9000E+01
      -24  2    1    2    0    0  0.00000000000000000E+00  0.00000000000000000E+00  0.26473946123853534E+03  0.27707521577060209E+03  0.81753855306375243E+02 0.0000E+00 0.0000E+00
       15  1    3    3    0    0  0.81556736106365850E+01 -0.67266816314972306E+01 -0.13242085271974489E+01  0.10801597800245048E+02  0.17769999999999999E+01 0.0000E+00 0.9000E+01
      -16  1    3    3    0    0 -0.81556736106365850E+01  0.67266816314972306E+01  0.26606366976573281E+03  0.26627361797035707E+03  0.00000000000000000E+00 0.0000E+00 0.9000E+01
#aMCatNLO 1  0  0  1  2 0.10120067D+02 0.00000000D+00  -5  5  0 0.00000000D+00 0.00000000D+00 0.00000000D+00 0.00000000D+00 0.00000000D+00
  <mgrwgt>
 0.4579702212D+04    6    2    0
 0.408769276531877D+02 0.000000000000000D+00 0.000000000000000D+00 0.408769276531877D+02
 0.408769276531877D+02 0.000000000000000D+00 0.000000000000000D+00 -.408769276531877D+02
 0.408962400696369D+02 0.815567361063659D+01 -.672668163149723D+01 -.394662066205839D+02
 0.408576152367386D+02 -.815567361063659D+01 0.672668163149723D+01 0.394662066205839D+02
 0.000000000000000D+00 -.000000000000000D+00 0.000000000000000D+00 -.000000000000000D+00
 0.411251207335290D+02 0.000000000000000D+00 0.000000000000000D+00 0.411251207335290D+02
 0.461212218839212D+02 0.000000000000000D+00 0.000000000000000D+00 -.461212218839212D+02
 0.411652427702645D+02 0.923856998412649D+01 -.696324945442832D+01 -.394662066205839D+02
 0.406184498335905D+02 -.708050250310224D+01 0.649180145790491D+01 0.394662066205839D+02
 0.546265001359513D+01 -.215806748102425D+01 0.471447996523415D+00 -.499610115039223D+01
0.286455249118D+00 0.000000000000D+00 0.000000000000D+00 0.775954357654D+01 0.000000000000D+00  5 -2 1 15 -16 21 0 0.41678052D-01 0.94890419D-03 0.11333662D+03 0.66836929D+04 0.66836929D+04 0.12279068D+01  1  2  2  1  5  1       -2 0.254769351549D+04 0.100000000000D+01
0.191092505807D-01 0.000000000000D+00 -.110006358201D-02 0.775954357654D+01 0.000000000000D+00  5 -2 1 15 -16 21 2 0.41678052D-01 0.94890419D-03 0.11333662D+03 0.66836929D+04 0.66836929D+04 0.12279068D+01  1  2  3  1  5  1       -2 0.196107398519D+03 0.100000000000D+01
0.967976669670D-02 0.000000000000D+00 0.000000000000D+00 0.775954357654D+01 0.000000000000D+00  5 -2 1 15 -16 21 2 0.41678052D-01 0.94890419D-03 0.11333662D+03 0.66836929D+04 0.66836929D+04 0.12279068D+01  1  2 15  1  5  1       -2 0.129803413856D+03 0.100000000000D+01
0.172005756340D+00 0.000000000000D+00 0.000000000000D+00 0.775954357654D+01 0.000000000000D+00  5 -2 1 15 -16 21 2 0.47310650D-01 0.94890419D-03 0.13829258D+03 0.66885724D+04 0.66885724D+04 0.12278724D+01  1  2 12  1  5  1       -2 0.183036787711D+04 0.100000000000D+01
-.396326000127D-01 0.000000000000D+00 0.000000000000D+00 0.775954357654D+01 0.000000000000D+00  5 -2 1 15 -16 21 2 0.41678052D-01 0.94890419D-03 0.11333662D+03 0.66836929D+04 0.66836929D+04 0.12279068D+01  1  2  4  1  5  1       -2 -.531463922925D+03 0.100000000000D+01
0.341682857156D-02 0.000000000000D+00 0.000000000000D+00 0.775954357654D+01 0.000000000000D+00  5 21 1 15 -16 2 2 0.47310650D-01 0.94890419D-03 0.13829258D+03 0.66885724D+04 0.66885724D+04 0.12278724D+01  1  2 12  3  5  1       -2 0.407193929568D+03 0.100000000000D+01
  </mgrwgt>
  </event>
  <event npLO=' -1 ' npNLO=' 0 '>
  6     66 0.56142148E+03 0.30000000E+02 0.75582076E-02 0.12025942E+00
       21 -1    0    0  502  501  0.00000000000000000E+00  0.00000000000000000E+00  0.28410814651201456E+02  0.28410814651201452E+02  0.00000000000000000E+00 0.0000E+00 0.9000E+01
        1 -1    0    0  501    0  0.00000000000000000E+00  0.00000000000000000E+00 -0.75143346760213930E+02  0.75143346760213930E+02  0.00000000000000000E+00 0.0000E+00 0.9000E+01
      -24  2    1    2    0    0 -0.42363109087121771E+01 -0.90870318075169667E+01 -0.47488274959572415E+02  0.93499728337279805E+02  0.79915846134062008E+02 0.0000E+00 0.0000E+00
       15  1    3    3    0    0 -0.16918678002636145E+02 -0.19747356949022379E+02  0.14161078346938076E+02  0.29663001209875990E+02  0.17769999999999999E+01 0.0000E+00 0.9000E+01
      -16  1    3    3    0    0  0.12682367093923968E+02  0.10660325141505412E+02 -0.61649353306510491E+02  0.63836727127403819E+02  0.00000000000000000E+00 0.0000E+00 0.9000E+01
        2  1    1    2  502    0  0.42363109087121780E+01  0.90870318075169667E+01  0.75574285055994039E+00  0.10054433074135574E+02  0.00000000000000000E+00 0.0000E+00 0.9000E+01
#aMCatNLO 2  0  0  1  2 0.11541755D+02 0.00000000D+00  -5  5  0 0.00000000D+00 0.00000000D+00 0.00000000D+00 0.00000000D+00 0.00000000D+00
  <mgrwgt>
 0.7081476584D+03    2    2    0
 0.399579230670310D+02 0.000000000000000D+00 0.000000000000000D+00 0.399579230670310D+02
 0.399579230670310D+02 0.000000000000000D+00 0.000000000000000D+00 -.399579230670310D+02
 0.399776796556974D+02 -.147336434035170D+02 -.150603829920620D+02 0.339287747766402D+02
 0.399381664783646D+02 0.147336434035170D+02 0.150603829920620D+02 -.339287747766402D+02
 0.000000000000000D+00 0.000000000000000D+00 0.000000000000000D+00 0.000000000000000D+00
 0.497326717378018D+02 0.000000000000000D+00 0.000000000000000D+00 0.497326717378018D+02
 0.429271869472613D+02 0.000000000000000D+00 0.000000000000000D+00 -.429271869472613D+02
 0.427845679968018D+02 -.169186780026361D+02 -.197473569490224D+02 0.339287747766402D+02
 0.377577372874969D+02 0.126823670939240D+02 0.106603251415054D+02 -.339287747766402D+02
 0.121175534007644D+02 0.423631090871218D+01 0.908703180751697D+01 0.680548479054050D+01
-.677769738949D-03 0.000000000000D+00 0.000000000000D+00 0.100762413547D+00 0.000000000000D+00  5 21 1 15 -16 2 2 0.46956947D-02 0.10760877D-01 0.69321796D+03 0.64870629D+04 0.64870629D+04 0.12293187D+01  1  2 13  3  5  1       -2 -.175321407377D+03 0.100000000000D+01
0.334909355001D-02 0.000000000000D+00 0.000000000000D+00 0.100762413547D+00 0.117786741869D-02  5 21 1 15 -16 2 2 0.43708946D-02 0.11560515D-01 0.69321796D+03 0.64870629D+04 0.64870629D+04 0.12293187D+01  1  2  1  3  5  1       -2 0.883469065731D+03 0.100000000000D+01
  </mgrwgt>
  </event>
  <event npLO=' -1 ' npNLO=' 0 '>
  5     66 0.56142148E+03 0.30000000E+02 0.75582076E-02 0.12027847E+00
       -4 -1    0    0    0  501  0.00000000000000000E+00  0.00000000000000000E+00  0.61116632824609678E+03  0.61116632824609678E+03  0.00000000000000000E+00 0.0000E+00 0.9000E+01
        3 -1    0    0  501    0  0.00000000000000000E+00  0.00000000000000000E+00 -0.26481088100069030E+01  0.26481088100069314E+01  0.00000000000000000E+00 0.0000E+00 0.9000E+01
      -24  2    1    2    0    0  0.00000000000000000E+00  0.00000000000000000E+00  0.60851821943608991E+03  0.61381443705610377E+03  0.80459553521209244E+02 0.0000E+00 0.0000E+00
       15  1    3    3    0    0  0.25881185684449481E+02  0.96242631418199203E+01  0.81415850808544747E+02  0.85989305761444371E+02  0.17769999999999999E+01 0.0000E+00 0.9000E+01
      -16  1    3    3    0    0 -0.25881185684449481E+02 -0.96242631418199203E+01  0.52710236862754516E+03  0.52782513129465940E+03  0.00000000000000000E+00 0.0000E+00 0.9000E+01
#aMCatNLO 1  0  0  2  1 0.81586556D+02 0.00000000D+00  -5  5  0 0.00000000D+00 0.00000000D+00 0.00000000D+00 0.00000000D+00 0.00000000D+00
  <mgrwgt>
 0.1642752872D+02    1    2    0
 0.402297767606044D+02 0.000000000000000D+00 0.000000000000000D+00 0.402297767606044D+02
 0.402297767606044D+02 0.000000000000000D+00 0.000000000000000D+00 -.402297767606044D+02
 0.402493998436431D+02 0.258811856844495D+02 0.962426314181992D+01 -.292300230126066D+02
 0.402101536775658D+02 -.258811856844495D+02 -.962426314181992D+01 0.292300230126066D+02
 0.000000000000000D+00 -.000000000000000D+00 0.000000000000000D+00 0.000000000000000D+00
 0.366173563367451D+03 0.000000000000000D+00 0.000000000000000D+00 0.366173563367451D+03
 0.536420970209203D+02 0.000000000000000D+00 0.000000000000000D+00 -.536420970209203D+02
 0.530955673744684D+02 0.402271710177739D+02 -.185300300163268D+02 -.292300230126066D+02
 0.481905672646856D+02 -.122950708258995D+02 -.362872947649834D+02 0.292300230126066D+02
 0.318529525749217D+03 -.279321001918743D+02 0.548173247813103D+02 0.312531466346530D+03
0.637121913347D-02 0.000000000000D+00 0.000000000000D+00 0.157349323770D+02 0.000000000000D+00  5 -4 3 15 -16 21 2 0.94025589D-01 0.40740136D-03 0.76404026D+03 0.64737398D+04 0.64737398D+04 0.12294161D+01  1  2 14  2  5  2        3 0.164275287212D+02 0.100000000000D+01
  </mgrwgt>
  </event>
  <event npLO=' -1 ' npNLO=' 0 '>
  5     66 0.56142148E+03 0.14839956E+02 0.75582076E-02 0.12043512E+00
       -2 -1    0    0    0  501  0.00000000000000000E+00  0.00000000000000000E+00  0.51101315145499363E+02  0.51101315145499363E+02  0.00000000000000000E+00 0.0000E+00 0.9000E+01
        1 -1    0    0  501    0  0.00000000000000000E+00  0.00000000000000000E+00 -0.31126807019786860E+02  0.31126807019786860E+02  0.00000000000000000E+00 0.0000E+00 0.9000E+01
      -24  2    1    2    0    0  0.00000000000000000E+00  0.00000000000000000E+00  0.19974508125712504E+02  0.82228122165286237E+02  0.79765174731615062E+02 0.0000E+00 0.0000E+00
       15  1    3    3    0    0  0.20008142432187821E+02  0.33874964579723347E+02  0.33750281302248499E+01  0.39527048115740115E+02  0.17769999999999999E+01 0.0000E+00 0.9000E+01
      -16  1    3    3    0    0 -0.20008142432187821E+02 -0.33874964579723347E+02  0.16599479995487656E+02  0.42701074049546115E+02  0.00000000000000000E+00 0.0000E+00 0.9000E+01
#aMCatNLO 1  0  0  1  2 0.24493401D+01 0.00000000D+00  -5  5  0 0.00000000D+00 0.00000000D+00 0.00000000D+00 0.00000000D+00 0.00000000D+00
  <mgrwgt>
 0.2354687916D+04    8    2    0
 0.398825873658075D+02 0.000000000000000D+00 0.000000000000000D+00 0.398825873658075D+02
 0.398825873658075D+02 0.000000000000000D+00 0.000000000000000D+00 -.398825873658075D+02
 0.399023812734284D+02 0.200081424321878D+02 0.338749645797233D+02 -.641898071548933D+01
 0.398627934581867D+02 -.200081424321878D+02 -.338749645797233D+02 0.641898071548933D+01
 0.000000000000000D+00 0.000000000000000D+00 -.000000000000000D+00 -.000000000000000D+00
 0.407199406263780D+02 0.000000000000000D+00 0.000000000000000D+00 0.407199406263780D+02
 0.407707630741716D+02 0.000000000000000D+00 0.000000000000000D+00 -.407707630741716D+02
 0.404478858523337D+02 0.197163863741737D+02 0.346833466643848D+02 -.641898071548933D+01
 0.393355416809283D+02 -.202957157643997D+02 -.330781717680546D+02 0.641898071548933D+01
 0.170727616728760D+01 0.579329390226079D+00 -.160517489633024D+01 -.508224477935007D-01
0.129959997166D+00 0.000000000000D+00 0.000000000000D+00 0.529033248907D+01 0.000000000000D+00  5 -2 1 15 -16 21 0 0.78617408D-02 0.47887395D-02 0.15494175D+04 0.63624831D+04 0.63624831D+04 0.12302381D+01  1  2  2  1  5  1       -2 0.188875807064D+04 0.100000000000D+01
-.721848815106D-02 0.000000000000D+00 -.499080608372D-03 0.529033248907D+01 0.000000000000D+00  5 -2 1 15 -16 21 2 0.78617408D-02 0.47887395D-02 0.15494175D+04 0.63624831D+04 0.63624831D+04 0.12302381D+01  1  2  3  1  5  1       -2 -.174284930387D+03 0.100000000000D+01
0.792793769599D-02 0.000000000000D+00 0.000000000000D+00 0.529033248907D+01 0.000000000000D+00  5 -2 1 15 -16 21 2 0.78617408D-02 0.47887395D-02 0.15494175D+04 0.63624831D+04 0.63624831D+04 0.12302381D+01  1  2 15  1  5  1       -2 0.174383436916D+03 0.100000000000D+01
0.616635428888D-03 0.000000000000D+00 0.000000000000D+00 0.529033248907D+01 0.000000000000D+00  5 -2 1 15 -16 21 2 0.82055566D-02 0.47887395D-02 0.16180541D+04 0.63653953D+04 0.63653953D+04 0.12302164D+01  1  2 12  1  5  1       -2 0.127265056807D+02 0.100000000000D+01
-.399854896676D+00 0.000000000000D+00 0.000000000000D+00 0.529033248907D+01 0.000000000000D+00  5 -2 1 15 -16 21 2 0.78617408D-02 0.47887395D-02 0.15494175D+04 0.63624831D+04 0.63624831D+04 0.12302381D+01  1  2  4  1  5  1       -2 -.879523450158D+04 0.100000000000D+01
0.399447817095D+00 0.000000000000D+00 0.000000000000D+00 0.529033248907D+01 0.146703143361D+02  5 -2 1 15 -16 21 2 0.80268017D-02 0.48953836D-02 0.16180541D+04 0.63653953D+04 0.63653953D+04 0.12302164D+01  1  2 11  1  5  1       -2 0.827036468459D+04 0.100000000000D+01
0.135792048018D-04 0.000000000000D+00 0.000000000000D+00 0.529033248907D+01 0.000000000000D+00  5 21 1 15 -16 2 2 0.82055566D-02 0.47887395D-02 0.16180541D+04 0.63653953D+04 0.63653953D+04 0.12302164D+01  1  2 12  3  5  1       -2 0.420096333228D+01 0.100000000000D+01
0.312755484855D-02 0.000000000000D+00 0.000000000000D+00 0.529033248907D+01 0.549221487842D-01  5 21 1 15 -16 2 2 0.80268017D-02 0.48953836D-02 0.16180541D+04 0.63653953D+04 0.63653953D+04 0.12302164D+01  1  2 11  3  5  1       -2 0.973773686780D+03 0.100000000000D+01
  </mgrwgt>
  </event>
</LesHouchesEvents>
