<LesHouchesEvents version="3.0">
  <!--
  <scalesfunctionalform>
    muR  FxFx merging scale
    muF1 FxFx merging scale
    muF2 FxFx merging scale
    QES  H_T/2 := sum_i mT(i)/2, i=final state
  </scalesfunctionalform>
PYTHIA8   
  -->
  <header>
        5
  </header>
  <init>
   2212   2212 0.65000000D+04 0.65000000D+04 -1 -1   325300   325300 -4   1
 0.55695495D+04 0.22740012D+02 0.13549799D+04     66
  </init>
  <event npLO=' -1 ' npNLO=' 0 '>
  5     66 0.13549799E+04 0.19358522E+02 0.75582076E-02 0.12029150E+00
       -1 -1    0    0    0  501  0.00000000000000000E+00  0.00000000000000000E+00  0.92840344050717221E+01  0.92840344050717221E+01  0.00000000000000000E+00 0.0000E+00 0.9000E+01
        2 -1    0    0  501    0  0.00000000000000000E+00  0.00000000000000000E+00 -0.17044812885317930E+03  0.17044812885317930E+03  0.00000000000000000E+00 0.0000E+00 0.9000E+01
       24  2    1    2    0    0  0.00000000000000000E+00  0.00000000000000000E+00 -0.16116409444810756E+03  0.17973216325825101E+03  0.79559947022431189E+02 0.0000E+00 0.0000E+00
      -15  1    3    3    0    0  0.30472756273853765E+02 -0.82168957458480643E-01 -0.22926241178181694E+02  0.38175461886183093E+02  0.17769999999999999E+01 0.0000E+00 0.9000E+01
       16  1    3    3    0    0 -0.30472756273853765E+02  0.82168957458480643E-01 -0.13823785326992586E+03  0.14155670137206792E+03  0.00000000000000000E+00 0.0000E+00 0.9000E+01
#aMCatNLO 1  0  0  2  1 0.18835360D+02 0.00000000D+00  -5  5  0 0.00000000D+00 0.00000000D+00 0.00000000D+00 0.00000000D+00 0.00000000D+00
  <mgrwgt>
 0.4949428154D+04    6    2    0
 0.397799735112156D+02 0.000000000000000D+00 0.000000000000000D+00 0.397799735112156D+02
 0.397799735112156D+02 0.000000000000000D+00 0.000000000000000D+00 -.397799735112156D+02
 0.397998184779242D+02 0.304727562738538D+02 -.821689574584806D-01 0.255396201070504D+02
 0.397601285445070D+02 -.304727562738538D+02 0.821689574584806D-01 -.255396201070504D+02
 0.000000000000000D+00 -.000000000000000D+00 -.000000000000000D+00 0.000000000000000D+00
 0.478853157410077D+02 0.000000000000000D+00 0.000000000000000D+00 0.478853157410077D+02
 0.445894069695819D+02 0.000000000000000D+00 0.000000000000000D+00 -.445894069695819D+02
 0.418849768462206D+02 0.327052684656424D+02 0.541172576783364D+01 0.255396201070504D+02
 0.385180568699328D+02 -.283333495140602D+02 0.534694446735943D+01 -.255396201070504D+02
 0.120716889944363D+02 -.437191895158222D+01 -.107586702351931D+02 0.329590877142581D+01
0.265934454370D+00 0.000000000000D+00 0.000000000000D+00 0.876747096301D+01 0.000000000000D+00  5 -1 2 -15 16 21 0 0.14283130D-02 0.26222789D-01 0.93017382D+03 0.63297852D+04 0.63297852D+04 0.12304828D+01  1  2  2  2  5  2        2 0.608806160020D+04 0.100000000000D+01
-.135062090089D-01 0.000000000000D+00 -.102125832693D-02 0.876747096301D+01 0.000000000000D+00  5 -1 2 -15 16 21 2 0.14283130D-02 0.26222789D-01 0.93017382D+03 0.63297852D+04 0.63297852D+04 0.12304828D+01  1  2  3  2  5  2        2 -.536037178488D+03 0.100000000000D+01
0.146144078790D-01 0.000000000000D+00 0.000000000000D+00 0.876747096301D+01 0.000000000000D+00  5 -1 2 -15 16 21 2 0.14283130D-02 0.26222789D-01 0.93017382D+03 0.63297852D+04 0.63297852D+04 0.12304828D+01  1  2 15  2  5  2        2 0.506566818880D+03 0.100000000000D+01
0.743133401722D-01 0.000000000000D+00 0.000000000000D+00 0.876747096301D+01 0.000000000000D+00  5 -1 2 -15 16 21 2 0.14283130D-02 0.35382128D-01 0.13558625D+04 0.64646478D+04 0.64646478D+04 0.12294826D+01  1  2 12  2  5  2        2 0.186458168570D+04 0.100000000000D+01
-.955038173383D-01 0.000000000000D+00 0.000000000000D+00 0.876747096301D+01 0.000000000000D+00  5 -1 2 -15 16 21 2 0.14283130D-02 0.26222789D-01 0.93017382D+03 0.63297852D+04 0.63297852D+04 0.12304828D+01  1  2  4  2  5  2        2 -.331036777818D+04 0.100000000000D+01
0.286968084682D-02 0.000000000000D+00 0.000000000000D+00 0.876747096301D+01 0.000000000000D+00  5 -1 21 -15 16 -2 2 0.14283130D-02 0.35382128D-01 0.13558625D+04 0.64646478D+04 0.64646478D+04 0.12294826D+01  1  2 12  4  5  2        2 0.336623006366D+03 0.100000000000D+01
  </mgrwgt>
  </event>
  <event npLO=' -1 ' npNLO=' 0 '>
  5     66 0.13549799E+04 0.27182426E+02 0.75582076E-02 0.12006212E+00
       -1 -1    0    0    0  501  0.00000000000000000E+00  0.00000000000000000E+00  0.41875381444735461E+03  0.41875381444735461E+03  0.00000000000000000E+00 0.0000E+00 0.9000E+01
        2 -1    0    0  501    0  0.00000000000000000E+00  0.00000000000000000E+00 -0.39191366362140769E+01  0.39191366362140911E+01  0.00000000000000000E+00 0.0000E+00 0.9000E+01
       24  2    1    2    0    0  0.00000000000000000E+00  0.00000000000000000E+00  0.41483467781114052E+03  0.42267295108356865E+03  0.81022303491199565E+02 0.0000E+00 0.0000E+00
      -15  1    3    3    0    0 -0.13866045715142651E+02  0.60871240024205386E+01  0.40342351714221360E+03  0.40371154580317511E+03  0.17769999999999999E+01 0.0000E+00 0.9000E+01
       16  1    3    3    0    0  0.13866045715142651E+02 -0.60871240024205386E+01  0.11411160668926925E+02  0.18961405280393535E+02  0.00000000000000000E+00 0.0000E+00 0.9000E+01
#aMCatNLO 1  0  0  1  2 0.82309920D+01 0.00000000D+00  -5  5  0 0.00000000D+00 0.00000000D+00 0.00000000D+00 0.00000000D+00 0.00000000D+00
  <mgrwgt>
 0.5092469926D+04   11    2    0
 0.405111517455998D+02 0.000000000000000D+00 0.000000000000000D+00 0.405111517455998D+02
 0.405111517455998D+02 0.000000000000000D+00 0.000000000000000D+00 -.405111517455998D+02
 0.405306385341996D+02 -.138660457151427D+02 0.608712400242054D+01 0.375533570882108D+02
 0.404916649570000D+02 0.138660457151427D+02 -.608712400242054D+01 -.375533570882108D+02
 0.000000000000000D+00 0.000000000000000D+00 0.000000000000000D+00 0.000000000000000D+00
 0.561505009945650D+02 0.000000000000000D+00 0.000000000000000D+00 0.561505009945650D+02
 0.417107695194463D+02 0.000000000000000D+00 0.000000000000000D+00 -.417107695194463D+02
 0.418270557352850D+02 -.176758333074167D+02 0.486365611206085D+01 0.375533570882108D+02
 0.395786730115220D+02 0.101620690216780D+02 -.727661198340003D+01 -.375533570882108D+02
 0.164555417672043D+02 0.751376428573870D+01 0.241295587133918D+01 0.144397314751186D+02
0.352607534781D+00 0.000000000000D+00 0.000000000000D+00 0.143952016552D+02 0.000000000000D+00  5 -1 2 -15 16 21 0 0.64423664D-01 0.60294410D-03 0.23089647D+03 0.65646137D+04 0.65646137D+04 0.12287562D+01  1  2  2  1  5  1       -1 0.314769982871D+04 0.100000000000D+01
0.331292336417D-02 0.000000000000D+00 -.135410577726D-02 0.143952016552D+02 0.000000000000D+00  5 -1 2 -15 16 21 2 0.64423664D-01 0.60294410D-03 0.23089647D+03 0.65646137D+04 0.65646137D+04 0.12287562D+01  1  2  3  1  5  1       -1 -.164423470591D+02 0.100000000000D+01
0.171049116580D-01 0.000000000000D+00 0.000000000000D+00 0.143952016552D+02 0.000000000000D+00  5 -1 2 -15 16 21 2 0.64423664D-01 0.60294410D-03 0.23089647D+03 0.65646137D+04 0.65646137D+04 0.12287562D+01  1  2 15  1  5  1       -1 0.230544098914D+03 0.100000000000D+01
0.101009649297D+01 0.000000000000D+00 0.000000000000D+00 0.143952016552D+02 0.000000000000D+00  5 -1 2 -15 16 21 2 0.91938640D-01 0.60294410D-03 0.37653577D+03 0.66268927D+04 0.66268927D+04 0.12283099D+01  1  2 12  1  5  1       -1 0.681260159315D+04 0.100000000000D+01
-.100936736419D+01 0.000000000000D+00 0.000000000000D+00 0.143952016552D+02 0.000000000000D+00  5 -1 2 -15 16 21 2 0.64423664D-01 0.60294410D-03 0.23089647D+03 0.65646137D+04 0.65646137D+04 0.12287562D+01  1  2  4  1  5  1       -1 -.136044952528D+05 0.100000000000D+01
-.914559140074D+00 0.000000000000D+00 -.162833447903D+00 0.143952016552D+02 0.000000000000D+00  5 -1 2 -15 16 21 2 0.90723415D-01 0.60294410D-03 0.23089647D+03 0.65646137D+04 0.65646137D+04 0.12287562D+01  1  2  5  1  5  1       -1 -.101212772606D+05 0.100000000000D+01
0.924684911220D+00 0.000000000000D+00 0.153736702791D+00 0.143952016552D+02 0.000000000000D+00  5 -1 2 -15 16 21 2 0.64423664D-01 0.60294410D-03 0.23089647D+03 0.65646137D+04 0.65646137D+04 0.12287562D+01  1  2  6  1  5  1       -1 0.193994375895D+05 0.100000000000D+01
0.287352246425D-02 0.000000000000D+00 0.000000000000D+00 0.143952016552D+02 0.193671920060D+01  5 -1 2 -15 16 21 2 0.89294450D-01 0.62079850D-03 0.37653577D+03 0.66268927D+04 0.66268927D+04 0.12283099D+01  1  2 11  1  5  1       -1 0.198016318504D+02 0.100000000000D+01
0.441413700404D-01 0.000000000000D+00 0.000000000000D+00 0.143952016552D+02 0.000000000000D+00  5 21 2 -15 16 1 2 0.91938640D-01 0.60294410D-03 0.37653577D+03 0.66268927D+04 0.66268927D+04 0.12283099D+01  1  2 12  3  5  1       -1 0.224483550577D+04 0.100000000000D+01
-.344238172101D-01 0.000000000000D+00 -.692275103544D-02 0.143952016552D+02 0.000000000000D+00  5 21 2 -15 16 1 2 0.90723415D-01 0.60294410D-03 0.23089647D+03 0.65646137D+04 0.65646137D+04 0.12287562D+01  1  2  5  3  5  1       -1 -.302681723014D+04 0.100000000000D+01
0.125310957812D-03 0.000000000000D+00 0.000000000000D+00 0.143952016552D+02 0.823152940640D-01  5 21 2 -15 16 1 2 0.89294450D-01 0.62079850D-03 0.37653577D+03 0.66268927D+04 0.66268927D+04 0.12283099D+01  1  2 11  3  5  1       -1 0.658176827953D+01 0.100000000000D+01
  </mgrwgt>
  </event>
  <event npLO=' -1 ' npNLO=' 0 '>
  5     66 0.13549799E+04 0.39811080E+02 0.75582076E-02 0.95968795E-01
       -1 -1    0    0    0  501  0.00000000000000000E+00  0.00000000000000000E+00  0.12222056107793826E+02  0.12222056107793819E+02  0.00000000000000000E+00 0.0000E+00 0.9000E+01
        2 -1    0    0  501    0  0.00000000000000000E+00  0.00000000000000000E+00 -0.13564533747736169E+03  0.13564533747736169E+03  0.00000000000000000E+00 0.0000E+00 0.9000E+01
       24  2    1    2    0    0  0.00000000000000000E+00  0.00000000000000000E+00 -0.12342328136956786E+03  0.14786739358515553E+03  0.81433774944035193E+02 0.0000E+00 0.0000E+00
      -15  1    3    3    0    0  0.25591021230151025E+02  0.30470366650128138E+02 -0.46232906585250198E+02  0.61024445853409858E+02  0.17769999999999999E+01 0.0000E+00 0.9000E+01
       16  1    3    3    0    0 -0.25591021230151025E+02 -0.30470366650128138E+02 -0.77190374784317669E+02  0.86842947731745653E+02  0.00000000000000000E+00 0.0000E+00 0.9000E+01
#aMCatNLO 1  0  0  2  2 0.20252377D+04 0.00000000D+00  -5  5  0 0.00000000D+00 0.00000000D+00 0.00000000D+00 0.00000000D+00 0.00000000D+00
  <mgrwgt>
 0.5442395029D+04    3    2    0
 0.407168874720176D+02 0.000000000000000D+00 0.000000000000000D+00 0.407168874720176D+02
 0.407168874720176D+02 0.000000000000000D+00 0.000000000000000D+00 -.407168874720176D+02
 0.407362757970840D+02 0.255910212301510D+02 0.304703666501281D+02 0.854065720075511D+01
 0.406974991469512D+02 -.255910212301510D+02 -.304703666501281D+02 -.854065720075511D+01
 0.000000000000000D+00 -.000000000000000D+00 0.000000000000000D+00 0.000000000000000D+00
 0.490081779041465D+04 0.000000000000000D+00 0.000000000000000D+00 0.490081779041465D+04
 0.218929876505997D+03 0.000000000000000D+00 0.000000000000000D+00 -.218929876505997D+03
 0.167256033120234D+03 0.130124326066066D+03 -.104719338359962D+03 0.854065720075511D+01
 0.252527662667105D+03 0.121778828092759D+03 -.221059255890914D+03 -.854065720075511D+01
 0.469996397113330D+04 -.251903154158825D+03 0.325778594250876D+03 0.468188791390865D+04
0.279912019496D+00 0.000000000000D+00 0.000000000000D+00 0.392713331515D+01 0.000000000000D+00  5 -1 2 -15 16 21 0 0.18803163D-02 0.20868513D-01 0.15849221D+04 0.66314597D+04 0.66314597D+04 0.12282773D+01  1  2  2  2  5  2        2 0.566097470938D+04 0.100000000000D+01
-.155410978897D-01 0.000000000000D+00 -.107493585739D-02 0.392713331515D+01 0.000000000000D+00  5 -1 2 -15 16 21 2 0.18803163D-02 0.20868513D-01 0.15849221D+04 0.66314597D+04 0.66314597D+04 0.12282773D+01  1  2  3  2  5  2        2 -.521124270749D+03 0.100000000000D+01
0.991577966621D-02 0.000000000000D+00 0.000000000000D+00 0.392713331515D+01 0.000000000000D+00  5 -1 2 -15 16 21 2 0.18803163D-02 0.20868513D-01 0.15849221D+04 0.66314597D+04 0.66314597D+04 0.12282773D+01  1  2 15  2  5  2        2 0.302544590412D+03 0.100000000000D+01
  </mgrwgt>
  </event>
  <event npLO=' -1 ' npNLO=' 0 '>
  5     66 0.13549799E+04 0.20454912E+02 0.75582076E-02 0.12047247E+00
       -3 -1    0    0    0  501  0.00000000000000000E+00  0.00000000000000000E+00  0.45731527520651881E+02  0.45731527520651881E+02  0.00000000000000000E+00 0.0000E+00 0.9000E+01
        4 -1    0    0  501    0  0.00000000000000000E+00  0.00000000000000000E+00 -0.34461977696543343E+02  0.34461977696543343E+02  0.00000000000000000E+00 0.0000E+00 0.9000E+01
       24  2    1    2    0    0  0.00000000000000000E+00  0.00000000000000000E+00  0.11269549824108541E+02  0.80193505217195224E+02  0.79397704789132618E+02 0.0000E+00 0.0000E+00
      -15  1    3    3    0    0 -0.22313085606460547E+02  0.92603993656418115E+00  0.38764026823332571E+02  0.44772076608142662E+02  0.17769999999999999E+01 0.0000E+00 0.9000E+01
       16  1    3    3    0    0  0.22313085606460547E+02 -0.92603993656418115E+00 -0.27494476999224030E+02  0.35421428609052569E+02  0.00000000000000000E+00 0.0000E+00 0.9000E+01
#aMCatNLO 1  0  0  1  2 0.60705896D+01 0.00000000D+00  -5  5  0 0.00000000D+00 0.00000000D+00 0.00000000D+00 0.00000000D+00 0.00000000D+00
  <mgrwgt>
 0.1331043558D+04   11    2    0
 0.396988523945663D+02 0.000000000000000D+00 0.000000000000000D+00 0.396988523945663D+02
 0.396988523945663D+02 0.000000000000000D+00 0.000000000000000D+00 -.396988523945663D+02
 0.397187379127207D+02 -.223130856064605D+02 0.926039936564181D+00 0.327976992048840D+02
 0.396789668764119D+02 0.223130856064605D+02 -.926039936564181D+00 -.327976992048840D+02
 0.000000000000000D+00 -.000000000000000D+00 -.000000000000000D+00 0.000000000000000D+00
 0.625013088726369D+02 0.000000000000000D+00 0.000000000000000D+00 0.625013088726369D+02
 0.402070057272238D+02 0.000000000000000D+00 0.000000000000000D+00 -.402070057272238D+02
 0.383094016998642D+02 -.196076359146045D+02 0.207462534155470D+01 0.327976992048840D+02
 0.413139351483136D+02 0.251213317457801D+02 0.266187196304980D+00 -.327976992048840D+02
 0.230849777516830D+02 -.551369583117560D+01 -.234081253785968D+01 0.222943031454131D+02
0.132755552233D+00 0.000000000000D+00 0.000000000000D+00 0.925133539385D+01 0.000000000000D+00  5 -3 4 -15 16 21 0 0.70356196D-02 0.53018427D-02 0.50030896D+03 0.63039955D+04 0.63039955D+04 0.12306768D+01  1  2  2  1  5  1       -3 0.101415035321D+04 0.100000000000D+01
-.442378952890D-02 0.000000000000D+00 -.509816275913D-03 0.925133539385D+01 0.000000000000D+00  5 -3 4 -15 16 21 2 0.70356196D-02 0.53018427D-02 0.50030896D+03 0.63039955D+04 0.63039955D+04 0.12306768D+01  1  2  3  1  5  1       -3 -.661291927703D+02 0.100000000000D+01
0.583357340087D-02 0.000000000000D+00 0.000000000000D+00 0.925133539385D+01 0.000000000000D+00  5 -3 4 -15 16 21 2 0.70356196D-02 0.53018427D-02 0.50030896D+03 0.63039955D+04 0.63039955D+04 0.12306768D+01  1  2 15  1  5  1       -3 0.674951106609D+02 0.100000000000D+01
0.810650469008D+00 0.000000000000D+00 0.000000000000D+00 0.925133539385D+01 0.000000000000D+00  5 -3 4 -15 16 21 2 0.11218565D-01 0.53018427D-02 0.64795075D+03 0.63398758D+04 0.63398758D+04 0.12304071D+01  1  2 12  1  5  1       -3 0.453415923386D+04 0.100000000000D+01
-.930943630347D+00 0.000000000000D+00 0.000000000000D+00 0.925133539385D+01 0.000000000000D+00  5 -3 4 -15 16 21 2 0.70356196D-02 0.53018427D-02 0.50030896D+03 0.63039955D+04 0.63039955D+04 0.12306768D+01  1  2  4  1  5  1       -3 -.107711241518D+05 0.100000000000D+01
-.987654151901D+00 0.000000000000D+00 -.532666035196D-01 0.925133539385D+01 0.000000000000D+00  5 -3 4 -15 16 21 2 0.11183152D-01 0.53018427D-02 0.50030896D+03 0.63039955D+04 0.63039955D+04 0.12306768D+01  1  2  5  1  5  1       -3 -.630928999706D+04 0.100000000000D+01
0.917311521137D+00 0.000000000000D+00 0.480175284396D-01 0.925133539385D+01 0.000000000000D+00  5 -3 4 -15 16 21 2 0.70356196D-02 0.53018427D-02 0.50030896D+03 0.63039955D+04 0.63039955D+04 0.12306768D+01  1  2  6  1  5  1       -3 0.120210497427D+05 0.100000000000D+01
0.207271856316D+00 0.000000000000D+00 0.000000000000D+00 0.925133539385D+01 0.233573623576D+01  5 -3 4 -15 16 21 2 0.11076780D-01 0.53697074D-02 0.64795075D+03 0.63398758D+04 0.63398758D+04 0.12304071D+01  1  2 11  1  5  1       -3 0.115947511624D+04 0.100000000000D+01
0.433055911516D-01 0.000000000000D+00 0.000000000000D+00 0.925133539385D+01 0.000000000000D+00  5 21 4 -15 16 3 2 0.11218565D-01 0.53018427D-02 0.64795075D+03 0.63398758D+04 0.63398758D+04 0.12304071D+01  1  2 12  3  5  1       -3 0.400823998957D+04 0.100000000000D+01
-.502888173901D-01 0.000000000000D+00 -.283073161834D-02 0.925133539385D+01 0.000000000000D+00  5 21 4 -15 16 3 2 0.11183152D-01 0.53018427D-02 0.50030896D+03 0.63039955D+04 0.63039955D+04 0.12306768D+01  1  2  5  3  5  1       -3 -.534592526986D+04 0.100000000000D+01
0.109961236856D-01 0.000000000000D+00 0.000000000000D+00 0.925133539385D+01 0.123364871783D+00  5 21 4 -15 16 3 2 0.11076780D-01 0.53697074D-02 0.64795075D+03 0.63398758D+04 0.63398758D+04 0.12304071D+01  1  2 11  3  5  1       -3 0.101894262280D+04 0.100000000000D+01
  </mgrwgt>
  </event>
  <event npLO=' -1 ' npNLO=' 0 '>
  5     66 0.13549799E+04 0.38325604E+02 0.75582076E-02 0.11421923E+00
       -1 -1    0    0    0  501  0.00000000000000000E+00  0.00000000000000000E+00  0.26169060486160234E+01  0.26169060486160447E+01  0.00000000000000000E+00 0.0000E+00 0.9000E+01
        2 -1    0    0  501    0  0.00000000000000000E+00  0.00000000000000000E+00 -0.61990404841042402E+03  0.61990404841042414E+03  0.00000000000000000E+00 0.0000E+00 0.9000E+01
       24  2    1    2    0    0  0.00000000000000000E+00  0.00000000000000000E+00 -0.61728714236180804E+03  0.62252095445904013E+03  0.80553849165556969E+02 0.0000E+00 0.0000E+00
      -15  1    3    3    0    0  0.10566177767526476E+02  0.36818872968643987E+02 -0.21308534936905932E+03  0.21650819237162870E+03  0.17769999999999999E+01 0.0000E+00 0.9000E+01
       16  1    3    3    0    0 -0.10566177767526476E+02 -0.36818872968643987E+02 -0.40420179299274866E+03  0.40601276208741143E+03  0.00000000000000000E+00 0.0000E+00 0.9000E+01
#aMCatNLO 1  0  0  1  2 0.10703447D+03 0.00000000D+00  -5  5  0 0.00000000D+00 0.00000000D+00 0.00000000D+00 0.00000000D+00 0.00000000D+00
  <mgrwgt>
 0.4504304175D+04    5    2    0
 0.402769245827786D+02 0.000000000000000D+00 0.000000000000000D+00 0.402769245827786D+02
 0.402769245827786D+02 0.000000000000000D+00 0.000000000000000D+00 -.402769245827786D+02
 0.402965246952047D+02 0.105661777675265D+02 0.368188729686440D+02 0.123846136078250D+02
 0.402573244703525D+02 -.105661777675265D+02 -.368188729686440D+02 -.123846136078250D+02
 0.000000000000000D+00 -.000000000000000D+00 0.000000000000000D+00 0.000000000000000D+00
 0.105784400433266D+03 0.000000000000000D+00 0.000000000000000D+00 0.105784400433266D+03
 0.894536775922506D+02 0.000000000000000D+00 0.000000000000000D+00 -.894536775922506D+02
 0.648065480487765D+02 0.538034143764598D+02 0.338901886719181D+02 0.123846136078250D+02
 0.487474719108443D+02 0.260485599370295D+02 -.392989807589257D+02 -.123846136078250D+02
 0.816840580658963D+02 -.798519743134894D+02 0.540879208700758D+01 0.163307228410159D+02
0.139541713731D+00 0.000000000000D+00 0.000000000000D+00 0.883138310369D+01 0.000000000000D+00  5 -1 2 -15 16 21 0 0.40260093D-03 0.95369854D-01 0.14688520D+04 0.64889226D+04 0.64889226D+04 0.12293051D+01  1  2  2  1  5  1       -1 0.451569522430D+04 0.100000000000D+01
-.772907211029D-02 0.000000000000D+00 -.535876922902D-03 0.883138310369D+01 0.000000000000D+00  5 -1 2 -15 16 21 2 0.40260093D-03 0.95369854D-01 0.14688520D+04 0.64889226D+04 0.64889226D+04 0.12293051D+01  1  2  3  1  5  1       -1 -.416911089048D+03 0.100000000000D+01
0.683133657937D-02 0.000000000000D+00 0.000000000000D+00 0.883138310369D+01 0.000000000000D+00  5 -1 2 -15 16 21 2 0.40260093D-03 0.95369854D-01 0.14688520D+04 0.64889226D+04 0.64889226D+04 0.12293051D+01  1  2 15  1  5  1       -1 0.334076262102D+03 0.100000000000D+01
0.123939456650D+00 0.000000000000D+00 -.700058568951D-01 0.883138310369D+01 0.000000000000D+00  5 -1 2 -15 16 21 2 0.24287818D-02 0.95369854D-01 0.14688520D+04 0.64889226D+04 0.64889226D+04 0.12293051D+01  1  2  5  1  5  1       -1 0.829528966089D+02 0.100000000000D+01
0.227500890919D-01 0.000000000000D+00 -.154198207516D-01 0.883138310369D+01 0.000000000000D+00  5 21 2 -15 16 1 2 0.24287818D-02 0.95369854D-01 0.14688520D+04 0.64889226D+04 0.64889226D+04 0.12293051D+01  1  2  5  3  5  1       -1 -.115091190424D+02 0.100000000000D+01
  </mgrwgt>
  </event>
</LesHouchesEvents>
