<LesHouchesEvents version="3.0">
  <!--
  <scalesfunctionalform>
    muR  FxFx merging scale
    muF1 FxFx merging scale
    muF2 FxFx merging scale
    QES  H_T/2 := sum_i mT(i)/2, i=final state
  </scalesfunctionalform>
PYTHIA8   
  -->
  <header>
        5
  </header>
  <init>
   2212   2212 0.65000000D+04 0.65000000D+04 -1 -1   325300   325300 -4   1
 0.41185047D+04 0.16948141D+02 0.99953088D+03     66
  </init>
  <event npLO=' -1 ' npNLO=' 0 '>
  5     66 0.99953088E+03 0.30000000E+02 0.75582076E-02 0.11913315E+00
        1 -1    0    0  501    0  0.00000000000000000E+00  0.00000000000000000E+00  0.19783590233695413E+02  0.19783590233695413E+02  0.00000000000000000E+00 0.0000E+00 0.9000E+01
       -2 -1    0    0    0  501  0.00000000000000000E+00  0.00000000000000000E+00 -0.76562133984447200E+02  0.76562133984447200E+02  0.00000000000000000E+00 0.0000E+00 0.9000E+01
      -24  2    1    2    0    0  0.00000000000000000E+00  0.00000000000000000E+00 -0.56778543750751794E+02  0.96345724218142621E+02  0.77837622938154766E+02 0.0000E+00 0.0000E+00
       15  1    3    3    0    0 -0.12874697220469942E+02 -0.24039903735595082E+02  0.59299629447774329E+01  0.27964209083431772E+02  0.17769999999999999E+01 0.0000E+00 0.9000E+01
      -16  1    3    3    0    0  0.12874697220469942E+02  0.24039903735595082E+02 -0.62708506695529223E+02  0.68381515134710853E+02  0.00000000000000000E+00 0.0000E+00 0.9000E+01
#aMCatNLO 1  0  0  1  2 0.16077401D+03 0.00000000D+00  -5  5  0 0.00000000D+00 0.00000000D+00 0.00000000D+00 0.00000000D+00 0.00000000D+00
  <mgrwgt>
 0.4063569995D+04    3    2    0
 0.389188114690774D+02 0.000000000000000D+00 0.000000000000000D+00 0.389188114690774D+02
 0.389188114690774D+02 0.000000000000000D+00 0.000000000000000D+00 -.389188114690774D+02
 0.389390955481692D+02 -.128746972204699D+02 -.240399037355951D+02 0.277384324173880D+02
 0.388985273899855D+02 0.128746972204699D+02 0.240399037355951D+02 -.277384324173880D+02
 0.000000000000000D+00 -.000000000000000D+00 0.000000000000000D+00 -.000000000000000D+00
 0.446743711434653D+02 0.000000000000000D+00 0.000000000000000D+00 0.446743711434653D+02
 0.214607056805335D+03 0.000000000000000D+00 0.000000000000000D+00 -.214607056805335D+03
 0.492303668870598D+02 -.292185325460040D+01 -.405279340137034D+02 0.277384324173880D+02
 0.364071527742880D+02 0.213754373148001D+02 0.995745046472233D+01 -.277384324173880D+02
 0.173643908287453D+03 -.184535840601997D+02 0.305704835489811D+02 -.169932685661870D+03
0.277978564907D+00 0.000000000000D+00 0.000000000000D+00 0.207463756618D+01 0.000000000000D+00  5 1 -2 15 -16 21 0 0.30436293D-02 0.11778790D-01 0.74525283D+03 0.60586955D+04 0.60586955D+04 0.12325673D+01  1  2  2  1  5  1        1 0.403414768127D+04 0.100000000000D+01
-.130820314607D-01 0.000000000000D+00 -.106751088268D-02 0.207463756618D+01 0.000000000000D+00  5 1 -2 15 -16 21 2 0.30436293D-02 0.11778790D-01 0.74525283D+03 0.60586955D+04 0.60586955D+04 0.12325673D+01  1  2  3  1  5  1        1 -.337748145244D+03 0.100000000000D+01
0.166535178141D-01 0.000000000000D+00 0.000000000000D+00 0.207463756618D+01 0.000000000000D+00  5 1 -2 15 -16 21 2 0.30436293D-02 0.11778790D-01 0.74525283D+03 0.60586955D+04 0.60586955D+04 0.12325673D+01  1  2 15  1  5  1        1 0.367170459363D+03 0.100000000000D+01
  </mgrwgt>
  </event>
  <event npLO=' -1 ' npNLO=' 0 '>
  5     66 0.99953088E+03 0.35058815E+02 0.75582076E-02 0.11630560E+00
        1 -1    0    0  501    0  0.00000000000000000E+00  0.00000000000000000E+00  0.10989047788771754E+03  0.10989047788771754E+03  0.00000000000000000E+00 0.0000E+00 0.9000E+01
       -2 -1    0    0    0  501  0.00000000000000000E+00  0.00000000000000000E+00 -0.14215846720823816E+02  0.14215846720823812E+02  0.00000000000000000E+00 0.0000E+00 0.9000E+01
      -24  2    1    2    0    0  0.00000000000000000E+00  0.00000000000000000E+00  0.95674631166893732E+02  0.12410632460854134E+03  0.79049002263908946E+02 0.0000E+00 0.0000E+00
       15  1    3    3    0    0  0.14456371914016879E+02  0.31914815743235177E+02  0.19208998082258219E+02  0.39996068421348966E+02  0.17769999999999999E+01 0.0000E+00 0.9000E+01
      -16  1    3    3    0    0 -0.14456371914016879E+02 -0.31914815743235177E+02  0.76465633084635513E+02  0.84110256187192377E+02  0.00000000000000000E+00 0.0000E+00 0.9000E+01
#aMCatNLO 1  0  0  1  2 0.90195834D+02 0.00000000D+00  -5  5  0 0.00000000D+00 0.00000000D+00 0.00000000D+00 0.00000000D+00 0.00000000D+00
  <mgrwgt>
 0.2056198226D+04    3    2    0
 0.395245011319545D+02 0.000000000000000D+00 0.000000000000000D+00 0.395245011319545D+02
 0.395245011319545D+02 0.000000000000000D+00 0.000000000000000D+00 -.395245011319545D+02
 0.395444743695006D+02 0.144563719140169D+02 0.319148157432352D+02 -.182500841455337D+02
 0.395045278944084D+02 -.144563719140169D+02 -.319148157432352D+02 0.182500841455337D+02
 0.000000000000000D+00 -.000000000000000D+00 -.000000000000000D+00 -.000000000000000D+00
 0.784952684139558D+02 0.000000000000000D+00 0.000000000000000D+00 0.784952684139558D+02
 0.841532766597884D+02 0.000000000000000D+00 0.000000000000000D+00 -.841532766597884D+02
 0.750419262043754D+02 0.446680329709273D+02 0.574441835058348D+02 -.182500841455337D+02
 0.253932818124019D+02 0.265447736982935D+01 -.174558568903982D+02 0.182500841455337D+02
 0.622133370569668D+02 -.473225103407567D+02 -.399883266154365D+02 -.565800824583260D+01
0.121024146491D+00 0.000000000000D+00 0.000000000000D+00 0.569471037285D+00 0.000000000000D+00  5 1 -2 15 -16 21 0 0.16906227D-01 0.21870533D-02 0.12291205D+04 0.62487448D+04 0.62487448D+04 0.12310953D+01  1  2  2  1  5  1        1 0.211658057460D+04 0.100000000000D+01
-.660605402188D-02 0.000000000000D+00 -.464764588917D-03 0.569471037285D+00 0.000000000000D+00  5 1 -2 15 -16 21 2 0.16906227D-01 0.21870533D-02 0.12291205D+04 0.62487448D+04 0.62487448D+04 0.12310953D+01  1  2  3  1  5  1        1 -.195132718736D+03 0.100000000000D+01
0.508374597799D-02 0.000000000000D+00 0.000000000000D+00 0.569471037285D+00 0.000000000000D+00  5 1 -2 15 -16 21 2 0.16906227D-01 0.21870533D-02 0.12291205D+04 0.62487448D+04 0.62487448D+04 0.12310953D+01  1  2 15  1  5  1        1 0.134750370614D+03 0.100000000000D+01
  </mgrwgt>
  </event>
  <event npLO=' -1 ' npNLO=' 0 '>
  5     66 0.99953088E+03 0.36958145E+02 0.75582076E-02 0.11690262E+00
        3 -1    0    0  501    0  0.00000000000000000E+00  0.00000000000000000E+00  0.38602292935969524E+03  0.38602292935969524E+03  0.00000000000000000E+00 0.0000E+00 0.9000E+01
       -4 -1    0    0    0  501  0.00000000000000000E+00  0.00000000000000000E+00 -0.42902552113778540E+01  0.42902552113778540E+01  0.00000000000000000E+00 0.0000E+00 0.9000E+01
      -24  2    1    2    0    0  0.00000000000000000E+00  0.00000000000000000E+00  0.38173267414831741E+03  0.39031318457107312E+03  0.81391323478532513E+02 0.0000E+00 0.0000E+00
       15  1    3    3    0    0  0.28502205465252981E+02 -0.23493623297980402E+02  0.27265467623720895E+03  0.27515096993299539E+03  0.17769999999999999E+01 0.0000E+00 0.9000E+01
      -16  1    3    3    0    0 -0.28502205465252981E+02  0.23493623297980402E+02  0.10907799791110844E+03  0.11516221463807771E+03  0.00000000000000000E+00 0.0000E+00 0.9000E+01
#aMCatNLO 1  0  0  2  2 0.22896948D+03 0.00000000D+00  -5  5  0 0.00000000D+00 0.00000000D+00 0.00000000D+00 0.00000000D+00 0.00000000D+00
  <mgrwgt>
 0.5994398429D+03    3    2    0
 0.406956617392663D+02 0.000000000000000D+00 0.000000000000000D+00 0.406956617392663D+02
 0.406956617392663D+02 0.000000000000000D+00 0.000000000000000D+00 -.406956617392663D+02
 0.407150601767474D+02 0.285022054652530D+02 -.234936232979804D+02 0.170362068590768D+02
 0.406762633017852D+02 -.285022054652530D+02 0.234936232979804D+02 -.170362068590768D+02
 0.000000000000000D+00 -.000000000000000D+00 0.000000000000000D+00 0.000000000000000D+00
 0.333406480319542D+03 0.000000000000000D+00 0.000000000000000D+00 0.333406480319542D+03
 0.509748014093435D+02 0.000000000000000D+00 0.000000000000000D+00 -.509748014093435D+02
 0.685233983893251D+02 0.606879428477400D+02 -.268149146294811D+02 0.170362068590768D+02
 0.285232940166230D+02 -.811342656750330D+01 0.213896766396128D+02 -.170362068590768D+02
 0.287334589322937D+03 -.525745162802367D+02 0.542523798986824D+01 0.282431678910199D+03
0.150778703402D+00 0.000000000000D+00 0.000000000000D+00 0.561532575661D+01 0.000000000000D+00  5 3 -4 15 -16 21 0 0.59388143D-01 0.66003926D-03 0.13659045D+04 0.66245475D+04 0.66245475D+04 0.12283266D+01  1  2  2  2  5  2       -4 0.604319874243D+03 0.100000000000D+01
-.828207517236D-02 0.000000000000D+00 -.579029922010D-03 0.561532575661D+01 0.000000000000D+00  5 3 -4 15 -16 21 2 0.59388143D-01 0.66003926D-03 0.13659045D+04 0.66245475D+04 0.66245475D+04 0.12283266D+01  1  2  3  2  5  2       -4 -.556121578027D+02 0.100000000000D+01
0.838935351683D-02 0.000000000000D+00 0.000000000000D+00 0.561532575661D+01 0.000000000000D+00  5 3 -4 15 -16 21 2 0.59388143D-01 0.66003926D-03 0.13659045D+04 0.66245475D+04 0.66245475D+04 0.12283266D+01  1  2 15  2  5  2       -4 0.507321264936D+02 0.100000000000D+01
  </mgrwgt>
  </event>
  <event npLO=' -1 ' npNLO=' 0 '>
  5     66 0.99953088E+03 0.30000000E+02 0.75582076E-02 0.11927139E+00
        1 -1    0    0  501    0  0.00000000000000000E+00  0.00000000000000000E+00  0.92261780904387635E+02  0.92261780904387635E+02  0.00000000000000000E+00 0.0000E+00 0.9000E+01
       -2 -1    0    0    0  501  0.00000000000000000E+00  0.00000000000000000E+00 -0.17201664805841659E+02  0.17201664805841659E+02  0.00000000000000000E+00 0.0000E+00 0.9000E+01
      -24  2    1    2    0    0  0.00000000000000000E+00  0.00000000000000000E+00  0.75060116098545976E+02  0.10946344571022929E+03  0.79675748619194763E+02 0.0000E+00 0.0000E+00
       15  1    3    3    0    0 -0.20508865004934204E+02  0.21548459643790320E+02  0.73911394383896479E+02  0.79693171637114304E+02  0.17769999999999999E+01 0.0000E+00 0.9000E+01
      -16  1    3    3    0    0  0.20508865004934204E+02 -0.21548459643790320E+02  0.11487217146495006E+01  0.29770274073114994E+02  0.00000000000000000E+00 0.0000E+00 0.9000E+01
#aMCatNLO 1  0  0  2  2 0.79070374D+02 0.00000000D+00  -5  5  0 0.00000000D+00 0.00000000D+00 0.00000000D+00 0.00000000D+00 0.00000000D+00
  <mgrwgt>
 0.3085412326D+04    3    2    0
 0.398378743095974D+02 0.000000000000000D+00 0.000000000000000D+00 0.398378743095974D+02
 0.398378743095974D+02 0.000000000000000D+00 0.000000000000000D+00 -.398378743095974D+02
 0.398576904334163D+02 -.205088650049342D+02 0.215484596437903D+02 0.264674913974741D+02
 0.398180581857785D+02 0.205088650049342D+02 -.215484596437903D+02 -.264674913974741D+02
 0.000000000000000D+00 0.000000000000000D+00 0.000000000000000D+00 0.000000000000000D+00
 0.947201889858718D+02 0.000000000000000D+00 0.000000000000000D+00 0.947201889858718D+02
 0.466838691713043D+02 0.000000000000000D+00 0.000000000000000D+00 -.466838691713043D+02
 0.416589467010728D+02 -.303010182178164D+02 0.106597516542845D+02 0.264674913974741D+02
 0.433309923192874D+02 0.105206187932072D+02 -.326552197161004D+02 -.264674913974741D+02
 0.564141191368158D+02 0.197803994246092D+02 0.219954680618160D+02 0.480363198145675D+02
0.185994877726D+00 0.000000000000D+00 0.000000000000D+00 0.100431988040D+02 0.000000000000D+00  5 1 -2 15 -16 21 0 0.14194120D-01 0.26464100D-02 0.88652782D+03 0.63482249D+04 0.63482249D+04 0.12303446D+01  1  2  2  2  5  2       -2 0.311046480033D+04 0.100000000000D+01
-.926797707617D-02 0.000000000000D+00 -.714269304043D-03 0.100431988040D+02 0.000000000000D+00  5 1 -2 15 -16 21 2 0.14194120D-01 0.26464100D-02 0.88652782D+03 0.63482249D+04 0.63482249D+04 0.12303446D+01  1  2  3  2  5  2       -2 -.270214815324D+03 0.100000000000D+01
0.968447070999D-02 0.000000000000D+00 0.000000000000D+00 0.100431988040D+02 0.000000000000D+00  5 1 -2 15 -16 21 2 0.14194120D-01 0.26464100D-02 0.88652782D+03 0.63482249D+04 0.63482249D+04 0.12303446D+01  1  2 15  2  5  2       -2 0.245162341015D+03 0.100000000000D+01
  </mgrwgt>
  </event>
  <event npLO=' -1 ' npNLO=' 0 '>
  5     66 0.99953088E+03 0.23883058E+02 0.75582076E-02 0.12060878E+00
        1 -1    0    0  501    0  0.00000000000000000E+00  0.00000000000000000E+00  0.13223660520572791E+04  0.13223660520572794E+04  0.00000000000000000E+00 0.0000E+00 0.9000E+01
       -2 -1    0    0    0  501  0.00000000000000000E+00  0.00000000000000000E+00 -0.11384673817886863E+01  0.11384673817887005E+01  0.00000000000000000E+00 0.0000E+00 0.9000E+01
      -24  2    1    2    0    0  0.00000000000000000E+00  0.00000000000000000E+00  0.13212275846754903E+04  0.13235045194390682E+04  0.77600789095272120E+02 0.0000E+00 0.0000E+00
       15  1    3    3    0    0 -0.14455944692409126E+02  0.23467139989521115E+01  0.12733880589287719E+04  0.12734735127810586E+04  0.17769999999999999E+01 0.0000E+00 0.9000E+01
      -16  1    3    3    0    0  0.14455944692409126E+02 -0.23467139989521115E+01  0.47839525746718486E+02  0.50031006658009574E+02  0.00000000000000000E+00 0.0000E+00 0.9000E+01
#aMCatNLO 1  0  0  1  2 0.15944656D+02 0.00000000D+00  -5  5  0 0.00000000D+00 0.00000000D+00 0.00000000D+00 0.00000000D+00 0.00000000D+00
  <mgrwgt>
 0.7941968988D+04    9    2    0
 0.388003945476340D+02 0.000000000000000D+00 0.000000000000000D+00 0.388003945476340D+02
 0.388003945476340D+02 0.000000000000000D+00 0.000000000000000D+00 -.388003945476340D+02
 0.388207405327510D+02 -.144559446924091D+02 0.234671399895211D+01 0.359083661974241D+02
 0.387800485625170D+02 0.144559446924091D+02 -.234671399895211D+01 -.359083661974241D+02
 0.000000000000000D+00 -.000000000000000D+00 -.000000000000000D+00 0.000000000000000D+00
 0.662630526241883D+02 0.000000000000000D+00 0.000000000000000D+00 0.662630526241883D+02
 0.416327023935606D+02 0.000000000000000D+00 0.000000000000000D+00 -.416327023935606D+02
 0.391301550903982D+02 -.121983024120763D+02 0.947638980275948D+01 0.359083661974241D+02
 0.399124460933515D+02 0.167350654345087D+02 0.485079118176540D+01 -.359083661974241D+02
 0.288531538339992D+02 -.453676302243241D+01 -.143271809845249D+02 0.246303502306277D+02
0.294579023399D+00 0.000000000000D+00 0.000000000000D+00 0.222460337226D+01 0.000000000000D+00  5 1 -2 15 -16 21 0 0.20344093D+00 0.17514883D-03 0.21605738D+03 0.60218825D+04 0.60218825D+04 0.12328584D+01  1  2  2  1  5  1        1 0.522336687685D+04 0.100000000000D+01
0.238201091073D-02 0.000000000000D+00 -.113126101429D-02 0.222460337226D+01 0.000000000000D+00  5 1 -2 15 -16 21 2 0.20344093D+00 0.17514883D-03 0.21605738D+03 0.60218825D+04 0.60218825D+04 0.12328584D+01  1  2  3  1  5  1        1 -.372566986612D+02 0.100000000000D+01
0.934372320911D-02 0.000000000000D+00 0.000000000000D+00 0.222460337226D+01 0.000000000000D+00  5 1 -2 15 -16 21 2 0.20344093D+00 0.17514883D-03 0.21605738D+03 0.60218825D+04 0.60218825D+04 0.12328584D+01  1  2 15  1  5  1        1 0.251822801631D+03 0.100000000000D+01
0.335617587538D+00 0.000000000000D+00 0.000000000000D+00 0.222460337226D+01 0.000000000000D+00  5 1 -2 15 -16 21 2 0.37279673D+00 0.17514883D-03 0.57601930D+03 0.62477328D+04 0.62477328D+04 0.12311030D+01  1  2 12  1  5  1        1 0.170620723611D+04 0.100000000000D+01
-.358577901042D+00 0.000000000000D+00 0.000000000000D+00 0.222460337226D+01 0.000000000000D+00  5 1 -2 15 -16 21 2 0.20344093D+00 0.17514883D-03 0.21605738D+03 0.60218825D+04 0.60218825D+04 0.12328584D+01  1  2  4  1  5  1        1 -.966403751723D+04 0.100000000000D+01
-.245725480360D+00 0.000000000000D+00 -.860884861893D-01 0.222460337226D+01 0.000000000000D+00  5 1 -2 15 -16 21 2 0.35485675D+00 0.17514883D-03 0.21605738D+03 0.60218825D+04 0.60218825D+04 0.12328584D+01  1  2  5  1  5  1        1 -.326870672833D+04 0.100000000000D+01
0.263565225763D+00 0.000000000000D+00 0.742917538836D-01 0.222460337226D+01 0.000000000000D+00  5 1 -2 15 -16 21 2 0.20344093D+00 0.17514883D-03 0.21605738D+03 0.60218825D+04 0.60218825D+04 0.12328584D+01  1  2  6  1  5  1        1 0.137660191897D+05 0.100000000000D+01
0.222115998598D-01 0.000000000000D+00 0.000000000000D+00 0.222460337226D+01 0.000000000000D+00  5 21 -2 15 -16 -1 2 0.37279673D+00 0.17514883D-03 0.57601930D+03 0.62477328D+04 0.62477328D+04 0.12311030D+01  1  2 12  3  5  1        1 0.572812670617D+02 0.100000000000D+01
-.107674837831D-01 0.000000000000D+00 -.529517950117D-02 0.222460337226D+01 0.000000000000D+00  5 21 -2 15 -16 -1 2 0.35485675D+00 0.17514883D-03 0.21605738D+03 0.60218825D+04 0.60218825D+04 0.12328584D+01  1  2  5  3  5  1        1 -.927274391078D+02 0.100000000000D+01
  </mgrwgt>
  </event>
</LesHouchesEvents>
