<LesHouchesEvents version="3.0">
<header>
<!--
#*********************************************************************
#                                                                    *
#                         MadGraph5_aMC@NLO                          *
#                                                                    *
#                   http://madgraph.hep.uiuc.edu                     *
#                   http://madgraph.phys.ucl.ac.be                   *
#                   http://amcatnlo.cern.ch                          *
#                                                                    *
#                     The MadGraph5_aMC@NLO team                     *
#                                                                    *
#....................................................................*
#                                                                    *
# This file contains all the information necessary to reproduce      *
# the events generated                                               *
#                                                                    *
# 1. software version                                                *
# 2. proc_card.dat      : code generation info including model       *
# 3. param_card.dat     : model primary parameters in the LH format  *
# 4. run_card.dat       : running parameters (collider and cuts)     *
#                                                                    *
#                                                                    *
#*********************************************************************
-->
<MGVersion>
#5.2.9.13
</MGVersion>
<MG5ProcCard>
<![CDATA[
#************************************************************                                                                                         
#*                     MadGraph5_aMC@NLO                    *                                                                                         
#*                                                          *                                                                                         
#*                *                       *                 *                                                                                         
#*                  *        * *        *                   *                                                                                         
#*                    * * * * 5 * * * *                     *                                                                                         
#*                  *        * *        *                   *                                                                                         
#*                *                       *                 *                                                                                         
#*                                                          *                                                                                         
#*                                                          *                                                                                         
#*         VERSION 2.9.13                2022-12-15         *                                                                                         
#*                                                          *                                                                                         
#*    The MadGraph5_aMC@NLO Development Team - Find us at   *                                                                                         
#*    https://server06.fynu.ucl.ac.be/projects/madgraph     *                                                                                         
#*                                                          *                                                                                         
#************************************************************                                                                                         
#*                                                          *                                                                                         
#*               Command File for MadGraph5_aMC@NLO         *                                                                                         
#*                                                          *                                                                                         
#*     run as ./bin/mg5_aMC  filename                       *                                                                                         
#*                                                          *                                                                                         
#************************************************************                                                                                         
set group_subprocesses Auto                                                                                                                           
set ignore_six_quark_processes False                                                                                                                  
set low_mem_multicore_nlo_generation False                                                                                                            
set complex_mass_scheme False                                                                                                                         
set gauge unitary                                                                                                                                     
set loop_optimized_output True                                                                                                                        
set loop_color_flows False                                                                                                                            
set max_npoint_for_channel 0                                                                                                                          
set default_unset_couplings 99                                                                                                                        
set max_t_for_channel 99                                                                                                                              
set zerowidth_tchannel True                                                                                                                           
import model loop_sm-ckm_no_b_mass                                                                                                                    
define p = g u c d s u~ c~ d~ s~                                                                                                                      
define j = g u c d s u~ c~ d~ s~                                                                                                                      
define l+ = e+ mu+                                                                                                                                    
define l- = e- mu-                                                                                                                                    
define p = 21 2 4 1 3 -2 -4 -1 -3 5 -5 # pass to 5 flavors                                                                                            
define j = p                                                                                                                                          
define ell+ = e+ mu+ ta+                                                                                                                              
define ell- = e- mu- ta-                                                                                                                              
define vl = ve vm vt                                                                                                                                  
define vl~ = ve~ vm~ vt~                                                                                                                              
generate p p > ell+ vl $$ t t~ h [QCD] @0                                                                                                             
add process p p > ell- vl~ $$ t t~ h [QCD] @1                                                                                                         
output wellnu0j_5f_NLO_FXFX -nojpeg
]]>
</MG5ProcCard>
<MGRunCard>
<![CDATA[
#***********************************************************************                                                                              
#                        MadGraph5_aMC@NLO                             *                                                                              
#                                                                      *                                                                              
#                      run_card.dat aMC@NLO                            *                                                                              
#                                                                      *                                                                              
#  This file is used to set the parameters of the run.                 *                                                                              
#                                                                      *                                                                              
#  Some notation/conventions:                                          *                                                                              
#                                                                      *                                                                              
#   Lines starting with a hash (#) are info or comments                *                                                                              
#                                                                      *                                                                              
#   mind the format:   value    = variable     ! comment               *                                                                              
#                                                                      *                                                                              
#   Some of the values of variables can be list. These can either be   *                                                                              
#   comma or space separated.                                          *                                                                              
#                                                                      *                                                                              
#   To display additional parameter, you can use the command:          *                                                                              
#      update to_full                                                  *                                                                              
#***********************************************************************                                                                              
#                                                                                                                                                     
#*******************                                                                                                                                  
# Running parameters                                                                                                                                  
#*******************                                                                                                                                  
#                                                                                                                                                     
#***********************************************************************                                                                              
# Tag name for the run (one word)                                      *                                                                              
#***********************************************************************                                                                              
  tag_1	= run_tag ! name of the run                                                                                                                   
#***********************************************************************                                                                              
# Number of LHE events (and their normalization) and the required      *                                                                              
# (relative) accuracy on the Xsec.                                     *                                                                              
# These values are ignored for fixed order runs                        *                                                                              
#***********************************************************************                                                                              
        100 = nevents                                                                                                                                 
  0.001	= req_acc ! Required accuracy (-1=auto determined from nevents)                                                                               
  100	= nevt_job ! Max number of events per job in event generation.                                                                                  
                 !  (-1= no split).                                                                                                                   
#***********************************************************************                                                                              
# Normalize the weights of LHE events such that they sum or average to *                                                                              
# the total cross section                                              *                                                                              
#***********************************************************************                                                                              
  average	= event_norm ! valid settings: average, sum, bias                                                                                           
#***********************************************************************                                                                              
# Number of points per itegration channel (ignored for aMC@NLO runs)   *                                                                              
#***********************************************************************                                                                              
  0.01	= req_acc_fo ! Required accuracy (-1=ignored, and use the                                                                                      
 	                   ! number of points and iter. below)                                                                                              
# These numbers are ignored except if req_acc_FO is equal to -1                                                                                       
  5000	= npoints_fo_grid ! number of points to setup grids                                                                                            
  4	= niters_fo_grid ! number of iter. to setup grids                                                                                                 
  10000	= npoints_fo ! number of points to compute Xsec                                                                                               
  6	= niters_fo ! number of iter. to compute Xsec                                                                                                     
#***********************************************************************                                                                              
# Random number seed                                                   *                                                                              
#***********************************************************************                                                                              
          1 =  iseed                                                                                                                                  
#***********************************************************************                                                                              
# Collider type and energy                                             *                                                                              
#***********************************************************************                                                                              
  1	= lpp1 ! beam 1 type (0 = no PDF)                                                                                                                 
  1	= lpp2 ! beam 2 type (0 = no PDF)                                                                                                                 
  6500.0	= ebeam1 ! beam 1 energy in GeV                                                                                                              
  6500.0	= ebeam2 ! beam 2 energy in GeV                                                                                                              
#***********************************************************************                                                                              
# PDF choice: this automatically fixes also alpha_s(MZ) and its evol.  *                                                                              
#***********************************************************************                                                                              
  lhapdf	= pdlabel ! PDF set                                                                                                                          
  325300	= lhaid ! If pdlabel=lhapdf, this is the lhapdf number. Only                                                                                 
              ! numbers for central PDF sets are allowed. Can be a list;                                                                              
              ! PDF sets beyond the first are included via reweighting.                                                                               
#***********************************************************************                                                                              
# Include the NLO Monte Carlo subtr. terms for the following parton    *                                                                              
# shower (HERWIG6 | HERWIGPP | PYTHIA6Q | PYTHIA6PT | PYTHIA8)         *                                                                              
# WARNING: PYTHIA6PT works only for processes without FSR!!!!          *                                                                              
#***********************************************************************                                                                              
  PYTHIA8	= parton_shower                                                                                                                             
  1.0	= shower_scale_factor ! multiply default shower starting                                                                                        
                                  ! scale by this factor                                                                                              
#***********************************************************************                                                                              
# Renormalization and factorization scales                             *                                                                              
# (Default functional form for the non-fixed scales is the sum of      *                                                                              
# the transverse masses divided by two of all final state particles    *                                                                              
# and partons. This can be changed in SubProcesses/set_scales.f or via *                                                                              
# dynamical_scale_choice option)                                       *                                                                              
#***********************************************************************                                                                              
  False	= fixed_ren_scale ! if .true. use fixed ren scale                                                                                             
  False	= fixed_fac_scale ! if .true. use fixed fac scale                                                                                             
  91.118	= mur_ref_fixed ! fixed ren reference scale                                                                                                  
  91.118	= muf_ref_fixed ! fixed fact reference scale                                                                                                 
  -1	= dynamical_scale_choice ! Choose one (or more) of the predefined                                                                                
           ! dynamical choices. Can be a list; scale choices beyond the                                                                               
           ! first are included via reweighting                                                                                                       
  1.0	= mur_over_ref ! ratio of current muR over reference muR                                                                                        
  1.0	= muf_over_ref ! ratio of current muF over reference muF                                                                                        
#***********************************************************************                                                                              
# Reweight variables for scale dependence and PDF uncertainty          *                                                                              
#***********************************************************************                                                                              
  1.0, 2.0, 0.5	= rw_rscale ! muR factors to be included by reweighting                                                                               
  1.0, 2.0, 0.5	= rw_fscale ! muF factors to be included by reweighting                                                                               
  False	= reweight_scale ! Reweight to get scale variation using the                                                                                  
            ! rw_rscale and rw_fscale factors. Should be a list of                                                                                    
            ! booleans of equal length to dynamical_scale_choice to                                                                                   
            ! specify for which choice to include scale dependence.                                                                                   
  False	= reweight_pdf ! Reweight to get PDF uncertainty. Should be a                                                                                 
            ! list booleans of equal length to lhaid to specify for                                                                                   
            !  which PDF set to include the uncertainties.                                                                                            
#***********************************************************************                                                                              
# Store reweight information in the LHE file for off-line model-       *                                                                              
# parameter reweighting at NLO+PS accuracy                             *                                                                              
#***********************************************************************                                                                              
  True	= store_rwgt_info ! Store info for reweighting in LHE file                                                                                     
#***********************************************************************                                                                              
# ickkw parameter:                                                     *                                                                              
#   0: No merging                                                      *                                                                              
#   3: FxFx Merging - WARNING! Applies merging only at the hard-event  *                                                                              
#      level. After showering an MLM-type merging should be applied as *                                                                              
#      well. See http://amcatnlo.cern.ch/FxFx_merging.htm for details. *                                                                              
#   4: UNLOPS merging (with pythia8 only). No interface from within    *                                                                              
#      MG5_aMC available, but available in Pythia8.                    *                                                                              
#  -1: NNLL+NLO jet-veto computation. See arxiv:1412.8408 [hep-ph].    *                                                                              
#***********************************************************************                                                                              
  3	= ickkw                                                                                                                                           
#***********************************************************************                                                                              
#                                                                                                                                                     
#***********************************************************************                                                                              
# BW cutoff (M+/-bwcutoff*Gamma). Determines which resonances are      *                                                                              
# written in the LHE event file                                        *                                                                              
#***********************************************************************                                                                              
  15.0	= bwcutoff                                                                                                                                     
#***********************************************************************                                                                              
# Cuts on the jets. Jet clustering is performed by FastJet.            *                                                                              
#  - When matching to a parton shower, these generation cuts should be *                                                                              
#    considerably softer than the analysis cuts.                       *                                                                              
#  - More specific cuts can be specified in SubProcesses/cuts.f        *                                                                              
#***********************************************************************                                                                              
  1.0	= jetalgo ! FastJet jet algorithm (1=kT, 0=C/A, -1=anti-kT)                                                                                     
  1.0	= jetradius ! The radius parameter for the jet algorithm                                                                                        
  10.0	= ptj ! Min jet transverse momentum                                                                                                            
  -1.0	= etaj ! Max jet abs(pseudo-rap) (a value .lt.0 means no cut)                                                                                  
#***********************************************************************                                                                              
# Cuts on the charged leptons (e+, e-, mu+, mu-, tau+ and tau-)        *                                                                              
# More specific cuts can be specified in SubProcesses/cuts.f           *                                                                              
#***********************************************************************                                                                              
  0.0	= ptl ! Min lepton transverse momentum                                                                                                          
  -1.0	= etal ! Max lepton abs(pseudo-rap) (a value .lt.0 means no cut)                                                                               
  0.0	= drll ! Min distance between opposite sign lepton pairs                                                                                        
  0.0	= drll_sf ! Min distance between opp. sign same-flavor lepton pairs                                                                             
  0.0	= mll ! Min inv. mass of all opposite sign lepton pairs                                                                                         
  30.0	= mll_sf ! Min inv. mass of all opp. sign same-flavor lepton pairs                                                                             
#***********************************************************************                                                                              
# Photon-isolation cuts, according to hep-ph/9801442. When ptgmin=0,   *                                                                              
# all the other parameters are ignored.                                *                                                                              
# More specific cuts can be specified in SubProcesses/cuts.f           *                                                                              
#***********************************************************************                                                                              
  20.0	= ptgmin ! Min photon transverse momentum                                                                                                      
  -1.0	= etagamma ! Max photon abs(pseudo-rap)                                                                                                        
  0.4	= r0gamma ! Radius of isolation code                                                                                                            
  1.0	= xn ! n parameter of eq.(3.4) in hep-ph/9801442                                                                                                
  1.0	= epsgamma ! epsilon_gamma parameter of eq.(3.4) in hep-ph/9801442                                                                              
  True	= isoem ! isolate photons from EM energy (photons and leptons)                                                                                 
#***********************************************************************                                                                              
# Cuts associated to MASSIVE particles identified by their PDG codes.  *                                                                              
# All cuts are applied to both particles and anti-particles, so use    *                                                                              
# POSITIVE PDG CODES only. Example of the syntax is {6 : 100} or       *                                                                              
# {6:100, 25:200} for multiple particles                               *                                                                              
#***********************************************************************                                                                              
  {}	= pt_min_pdg ! Min pT for a massive particle                                                                                                     
  {}	= pt_max_pdg ! Max pT for a massive particle                                                                                                     
  {}	= mxx_min_pdg ! inv. mass for any pair of (anti)particles                                                                                        
#***********************************************************************                                                                              
# For aMCfast+APPLGRID use in PDF fitting (http://amcfast.hepforge.org)*                                                                              
#***********************************************************************                                                                              
  0	= iappl ! aMCfast switch (0=OFF, 1=prepare grids, 2=fill grids)                                                                                   
#***********************************************************************                                                                              
#*********************************************************************                                                                                
#  Additional hidden parameters                                                                                                                       
#*********************************************************************                                                                                
  5	= maxjetflavor # hidden_parameter
]]>
</MGRunCard>
<slha>
######################################################################                                                                                
## PARAM_CARD AUTOMATICALY GENERATED BY MG5                       ####                                                                                
######################################################################                                                                                
###################################                                                                                                                   
## INFORMATION FOR MASS                                                                                                                               
###################################                                                                                                                   
BLOCK MASS #                                                                                                                                          
      6 1.730000e+02 # mt                                                                                                                             
      15 1.777000e+00 # mta                                                                                                                           
      23 9.115351e+01 # mz                                                                                                                            
      25 1.250000e+02 # mh                                                                                                                            
      1 0.000000e+00 # d : 0.0                                                                                                                        
      2 0.000000e+00 # u : 0.0                                                                                                                        
      3 0.000000e+00 # s : 0.0                                                                                                                        
      4 0.000000e+00 # c : 0.0                                                                                                                        
      5 0.000000e+00 # b : 0.0                                                                                                                        
      11 0.000000e+00 # e- : 0.0                                                                                                                      
      12 0.000000e+00 # ve : 0.0                                                                                                                      
      13 0.000000e+00 # mu- : 0.0                                                                                                                     
      14 0.000000e+00 # vm : 0.0                                                                                                                      
      16 0.000000e+00 # vt : 0.0                                                                                                                      
      21 0.000000e+00 # g : 0.0                                                                                                                       
      22 0.000000e+00 # a : 0.0                                                                                                                       
      24 8.035181e+01 # w+ : cmath.sqrt(mz__exp__2/2. + cmath.sqrt(mz__exp__4/4. - (aew*cmath.pi*mz__exp__2)/(gf*sqrt__2)))                           
###################################                                                                                                                   
## INFORMATION FOR SMINPUTS                                                                                                                           
###################################                                                                                                                   
BLOCK SMINPUTS #                                                                                                                                      
      1 1.323065e+02 # aewm1                                                                                                                          
      2 1.166379e-05 # gf                                                                                                                             
      3 1.180000e-01 # as (note that parameter not used if you use a pdf set)                                                                         
###################################                                                                                                                   
## INFORMATION FOR WOLFENSTEIN                                                                                                                        
###################################                                                                                                                   
BLOCK WOLFENSTEIN #                                                                                                                                   
      1 2.253000e-01 # lamws                                                                                                                          
      2 8.080000e-01 # aws                                                                                                                            
      3 1.320000e-01 # rhows                                                                                                                          
      4 3.410000e-01 # etaws                                                                                                                          
###################################                                                                                                                   
## INFORMATION FOR YUKAWA                                                                                                                             
###################################                                                                                                                   
BLOCK YUKAWA #                                                                                                                                        
      6 1.730000e+02 # ymt                                                                                                                            
      15 1.777000e+00 # ymtau                                                                                                                         
###################################                                                                                                                   
## INFORMATION FOR DECAY                                                                                                                              
###################################                                                                                                                   
DECAY 6 1.491500e+00 # wt                                                                                                                             
DECAY 23 2.493202e+00 # wz                                                                                                                            
DECAY 24 2.090431e+00 # ww                                                                                                                            
DECAY 25 6.382339e-03 # wh                                                                                                                            
DECAY 1 0.000000e+00 # d : 0.0                                                                                                                        
DECAY 2 0.000000e+00 # u : 0.0                                                                                                                        
DECAY 3 0.000000e+00 # s : 0.0                                                                                                                        
DECAY 4 0.000000e+00 # c : 0.0                                                                                                                        
DECAY 5 0.000000e+00 # b : 0.0                                                                                                                        
DECAY 11 0.000000e+00 # e- : 0.0                                                                                                                      
DECAY 12 0.000000e+00 # ve : 0.0                                                                                                                      
DECAY 13 0.000000e+00 # mu- : 0.0                                                                                                                     
DECAY 14 0.000000e+00 # vm : 0.0                                                                                                                      
DECAY 15 0.000000e+00 # ta- : 0.0                                                                                                                     
DECAY 16 0.000000e+00 # vt : 0.0                                                                                                                      
DECAY 21 0.000000e+00 # g : 0.0                                                                                                                       
DECAY 22 0.000000e+00 # a : 0.0                                                                                                                       
###################################                                                                                                                   
## INFORMATION FOR QNUMBERS 82                                                                                                                        
###################################                                                                                                                   
BLOCK QNUMBERS 82 #  gh                                                                                                                               
      1 0 # 3 times electric charge                                                                                                                   
      2 1 # number of spin states (2s+1)                                                                                                              
      3 8 # colour rep (1: singlet, 3: triplet, 8: octet)                                                                                             
      4 1 # particle/antiparticle distinction (0=own anti)
</slha>
<initrwgt>
<weightgroup name="NNPDF31_nnlo_as_0118_mc_hessian_pdfas" combine="symmhessian+as"> # 325300: NNPDF3.1 NNLO global fit, alphas(MZ)=0.118. mem=0 ; average on replicas (setting negative replicas to zero); mem=1-100 ; PDF eig.; mem=101 ; central value (forced positive definite) Alphas(MZ)=0.116; mem=102 ; central value (forced positive definite) Alphas(MZ)=0.120
<weight id="1001" MUR="1.0"  MUF="1.0"  PDF="325300" >  </weight>
<weightgroup name="Central scale variation" combine="envelope">
</weightgroup> PDF 
<weight id="1002" MUR="2.0"  MUF="1.0"  PDF="325300" > MUR=2.0  </weight>
<weight id="1003" MUR="0.5"  MUF="1.0"  PDF="325300" > MUR=0.5  </weight>
<weight id="1004" MUR="1.0"  MUF="2.0"  PDF="325300" > MUF=2.0  </weight>
<weight id="1005" MUR="2.0"  MUF="2.0"  PDF="325300" > MUR=2.0 MUF=2.0  </weight>
<weight id="1006" MUR="0.5"  MUF="2.0"  PDF="325300" > MUR=0.5 MUF=2.0  </weight>
<weight id="1007" MUR="1.0"  MUF="0.5"  PDF="325300" > MUF=0.5  </weight>
<weight id="1008" MUR="2.0"  MUF="0.5"  PDF="325300" > MUR=2.0 MUF=0.5  </weight>
<weight id="1009" MUR="0.5"  MUF="0.5"  PDF="325300" > MUR=0.5 MUF=0.5  </weight>
</weightgroup> # scale
<weightgroup name="NNPDF31_nnlo_as_0118_mc_hessian_pdfas" combine="symmhessian+as"> # 325300: NNPDF3.1 NNLO global fit, alphas(MZ)=0.118. mem=0 ; average on replicas (setting negative replicas to zero); mem=1-100 ; PDF eig.; mem=101 ; central value (forced positive definite) Alphas(MZ)=0.116; mem=102 ; central value (forced positive definite) Alphas(MZ)=0.120
<weight id="1010" MUR="1.0"  MUF="1.0"  PDF="325300" >  </weight>
<weight id="1011" MUR="1.0"  MUF="1.0"  PDF="325301" > PDF=325300 MemberID=1 </weight>
<weight id="1012" MUR="1.0"  MUF="1.0"  PDF="325302" > PDF=325300 MemberID=2 </weight>
<weight id="1013" MUR="1.0"  MUF="1.0"  PDF="325303" > PDF=325300 MemberID=3 </weight>
<weight id="1014" MUR="1.0"  MUF="1.0"  PDF="325304" > PDF=325300 MemberID=4 </weight>
<weight id="1015" MUR="1.0"  MUF="1.0"  PDF="325305" > PDF=325300 MemberID=5 </weight>
<weight id="1016" MUR="1.0"  MUF="1.0"  PDF="325306" > PDF=325300 MemberID=6 </weight>
<weight id="1017" MUR="1.0"  MUF="1.0"  PDF="325307" > PDF=325300 MemberID=7 </weight>
<weight id="1018" MUR="1.0"  MUF="1.0"  PDF="325308" > PDF=325300 MemberID=8 </weight>
<weight id="1019" MUR="1.0"  MUF="1.0"  PDF="325309" > PDF=325300 MemberID=9 </weight>
<weight id="1020" MUR="1.0"  MUF="1.0"  PDF="325310" > PDF=325300 MemberID=10 </weight>
<weight id="1021" MUR="1.0"  MUF="1.0"  PDF="325311" > PDF=325300 MemberID=11 </weight>
<weight id="1022" MUR="1.0"  MUF="1.0"  PDF="325312" > PDF=325300 MemberID=12 </weight>
<weight id="1023" MUR="1.0"  MUF="1.0"  PDF="325313" > PDF=325300 MemberID=13 </weight>
<weight id="1024" MUR="1.0"  MUF="1.0"  PDF="325314" > PDF=325300 MemberID=14 </weight>
<weight id="1025" MUR="1.0"  MUF="1.0"  PDF="325315" > PDF=325300 MemberID=15 </weight>
<weight id="1026" MUR="1.0"  MUF="1.0"  PDF="325316" > PDF=325300 MemberID=16 </weight>
<weight id="1027" MUR="1.0"  MUF="1.0"  PDF="325317" > PDF=325300 MemberID=17 </weight>
<weight id="1028" MUR="1.0"  MUF="1.0"  PDF="325318" > PDF=325300 MemberID=18 </weight>
<weight id="1029" MUR="1.0"  MUF="1.0"  PDF="325319" > PDF=325300 MemberID=19 </weight>
<weight id="1030" MUR="1.0"  MUF="1.0"  PDF="325320" > PDF=325300 MemberID=20 </weight>
<weight id="1031" MUR="1.0"  MUF="1.0"  PDF="325321" > PDF=325300 MemberID=21 </weight>
<weight id="1032" MUR="1.0"  MUF="1.0"  PDF="325322" > PDF=325300 MemberID=22 </weight>
<weight id="1033" MUR="1.0"  MUF="1.0"  PDF="325323" > PDF=325300 MemberID=23 </weight>
<weight id="1034" MUR="1.0"  MUF="1.0"  PDF="325324" > PDF=325300 MemberID=24 </weight>
<weight id="1035" MUR="1.0"  MUF="1.0"  PDF="325325" > PDF=325300 MemberID=25 </weight>
<weight id="1036" MUR="1.0"  MUF="1.0"  PDF="325326" > PDF=325300 MemberID=26 </weight>
<weight id="1037" MUR="1.0"  MUF="1.0"  PDF="325327" > PDF=325300 MemberID=27 </weight>
<weight id="1038" MUR="1.0"  MUF="1.0"  PDF="325328" > PDF=325300 MemberID=28 </weight>
<weight id="1039" MUR="1.0"  MUF="1.0"  PDF="325329" > PDF=325300 MemberID=29 </weight>
<weight id="1040" MUR="1.0"  MUF="1.0"  PDF="325330" > PDF=325300 MemberID=30 </weight>
<weight id="1041" MUR="1.0"  MUF="1.0"  PDF="325331" > PDF=325300 MemberID=31 </weight>
<weight id="1042" MUR="1.0"  MUF="1.0"  PDF="325332" > PDF=325300 MemberID=32 </weight>
<weight id="1043" MUR="1.0"  MUF="1.0"  PDF="325333" > PDF=325300 MemberID=33 </weight>
<weight id="1044" MUR="1.0"  MUF="1.0"  PDF="325334" > PDF=325300 MemberID=34 </weight>
<weight id="1045" MUR="1.0"  MUF="1.0"  PDF="325335" > PDF=325300 MemberID=35 </weight>
<weight id="1046" MUR="1.0"  MUF="1.0"  PDF="325336" > PDF=325300 MemberID=36 </weight>
<weight id="1047" MUR="1.0"  MUF="1.0"  PDF="325337" > PDF=325300 MemberID=37 </weight>
<weight id="1048" MUR="1.0"  MUF="1.0"  PDF="325338" > PDF=325300 MemberID=38 </weight>
<weight id="1049" MUR="1.0"  MUF="1.0"  PDF="325339" > PDF=325300 MemberID=39 </weight>
<weight id="1050" MUR="1.0"  MUF="1.0"  PDF="325340" > PDF=325300 MemberID=40 </weight>
<weight id="1051" MUR="1.0"  MUF="1.0"  PDF="325341" > PDF=325300 MemberID=41 </weight>
<weight id="1052" MUR="1.0"  MUF="1.0"  PDF="325342" > PDF=325300 MemberID=42 </weight>
<weight id="1053" MUR="1.0"  MUF="1.0"  PDF="325343" > PDF=325300 MemberID=43 </weight>
<weight id="1054" MUR="1.0"  MUF="1.0"  PDF="325344" > PDF=325300 MemberID=44 </weight>
<weight id="1055" MUR="1.0"  MUF="1.0"  PDF="325345" > PDF=325300 MemberID=45 </weight>
<weight id="1056" MUR="1.0"  MUF="1.0"  PDF="325346" > PDF=325300 MemberID=46 </weight>
<weight id="1057" MUR="1.0"  MUF="1.0"  PDF="325347" > PDF=325300 MemberID=47 </weight>
<weight id="1058" MUR="1.0"  MUF="1.0"  PDF="325348" > PDF=325300 MemberID=48 </weight>
<weight id="1059" MUR="1.0"  MUF="1.0"  PDF="325349" > PDF=325300 MemberID=49 </weight>
<weight id="1060" MUR="1.0"  MUF="1.0"  PDF="325350" > PDF=325300 MemberID=50 </weight>
<weight id="1061" MUR="1.0"  MUF="1.0"  PDF="325351" > PDF=325300 MemberID=51 </weight>
<weight id="1062" MUR="1.0"  MUF="1.0"  PDF="325352" > PDF=325300 MemberID=52 </weight>
<weight id="1063" MUR="1.0"  MUF="1.0"  PDF="325353" > PDF=325300 MemberID=53 </weight>
<weight id="1064" MUR="1.0"  MUF="1.0"  PDF="325354" > PDF=325300 MemberID=54 </weight>
<weight id="1065" MUR="1.0"  MUF="1.0"  PDF="325355" > PDF=325300 MemberID=55 </weight>
<weight id="1066" MUR="1.0"  MUF="1.0"  PDF="325356" > PDF=325300 MemberID=56 </weight>
<weight id="1067" MUR="1.0"  MUF="1.0"  PDF="325357" > PDF=325300 MemberID=57 </weight>
<weight id="1068" MUR="1.0"  MUF="1.0"  PDF="325358" > PDF=325300 MemberID=58 </weight>
<weight id="1069" MUR="1.0"  MUF="1.0"  PDF="325359" > PDF=325300 MemberID=59 </weight>
<weight id="1070" MUR="1.0"  MUF="1.0"  PDF="325360" > PDF=325300 MemberID=60 </weight>
<weight id="1071" MUR="1.0"  MUF="1.0"  PDF="325361" > PDF=325300 MemberID=61 </weight>
<weight id="1072" MUR="1.0"  MUF="1.0"  PDF="325362" > PDF=325300 MemberID=62 </weight>
<weight id="1073" MUR="1.0"  MUF="1.0"  PDF="325363" > PDF=325300 MemberID=63 </weight>
<weight id="1074" MUR="1.0"  MUF="1.0"  PDF="325364" > PDF=325300 MemberID=64 </weight>
<weight id="1075" MUR="1.0"  MUF="1.0"  PDF="325365" > PDF=325300 MemberID=65 </weight>
<weight id="1076" MUR="1.0"  MUF="1.0"  PDF="325366" > PDF=325300 MemberID=66 </weight>
<weight id="1077" MUR="1.0"  MUF="1.0"  PDF="325367" > PDF=325300 MemberID=67 </weight>
<weight id="1078" MUR="1.0"  MUF="1.0"  PDF="325368" > PDF=325300 MemberID=68 </weight>
<weight id="1079" MUR="1.0"  MUF="1.0"  PDF="325369" > PDF=325300 MemberID=69 </weight>
<weight id="1080" MUR="1.0"  MUF="1.0"  PDF="325370" > PDF=325300 MemberID=70 </weight>
<weight id="1081" MUR="1.0"  MUF="1.0"  PDF="325371" > PDF=325300 MemberID=71 </weight>
<weight id="1082" MUR="1.0"  MUF="1.0"  PDF="325372" > PDF=325300 MemberID=72 </weight>
<weight id="1083" MUR="1.0"  MUF="1.0"  PDF="325373" > PDF=325300 MemberID=73 </weight>
<weight id="1084" MUR="1.0"  MUF="1.0"  PDF="325374" > PDF=325300 MemberID=74 </weight>
<weight id="1085" MUR="1.0"  MUF="1.0"  PDF="325375" > PDF=325300 MemberID=75 </weight>
<weight id="1086" MUR="1.0"  MUF="1.0"  PDF="325376" > PDF=325300 MemberID=76 </weight>
<weight id="1087" MUR="1.0"  MUF="1.0"  PDF="325377" > PDF=325300 MemberID=77 </weight>
<weight id="1088" MUR="1.0"  MUF="1.0"  PDF="325378" > PDF=325300 MemberID=78 </weight>
<weight id="1089" MUR="1.0"  MUF="1.0"  PDF="325379" > PDF=325300 MemberID=79 </weight>
<weight id="1090" MUR="1.0"  MUF="1.0"  PDF="325380" > PDF=325300 MemberID=80 </weight>
<weight id="1091" MUR="1.0"  MUF="1.0"  PDF="325381" > PDF=325300 MemberID=81 </weight>
<weight id="1092" MUR="1.0"  MUF="1.0"  PDF="325382" > PDF=325300 MemberID=82 </weight>
<weight id="1093" MUR="1.0"  MUF="1.0"  PDF="325383" > PDF=325300 MemberID=83 </weight>
<weight id="1094" MUR="1.0"  MUF="1.0"  PDF="325384" > PDF=325300 MemberID=84 </weight>
<weight id="1095" MUR="1.0"  MUF="1.0"  PDF="325385" > PDF=325300 MemberID=85 </weight>
<weight id="1096" MUR="1.0"  MUF="1.0"  PDF="325386" > PDF=325300 MemberID=86 </weight>
<weight id="1097" MUR="1.0"  MUF="1.0"  PDF="325387" > PDF=325300 MemberID=87 </weight>
<weight id="1098" MUR="1.0"  MUF="1.0"  PDF="325388" > PDF=325300 MemberID=88 </weight>
<weight id="1099" MUR="1.0"  MUF="1.0"  PDF="325389" > PDF=325300 MemberID=89 </weight>
<weight id="1100" MUR="1.0"  MUF="1.0"  PDF="325390" > PDF=325300 MemberID=90 </weight>
<weight id="1101" MUR="1.0"  MUF="1.0"  PDF="325391" > PDF=325300 MemberID=91 </weight>
<weight id="1102" MUR="1.0"  MUF="1.0"  PDF="325392" > PDF=325300 MemberID=92 </weight>
<weight id="1103" MUR="1.0"  MUF="1.0"  PDF="325393" > PDF=325300 MemberID=93 </weight>
<weight id="1104" MUR="1.0"  MUF="1.0"  PDF="325394" > PDF=325300 MemberID=94 </weight>
<weight id="1105" MUR="1.0"  MUF="1.0"  PDF="325395" > PDF=325300 MemberID=95 </weight>
<weight id="1106" MUR="1.0"  MUF="1.0"  PDF="325396" > PDF=325300 MemberID=96 </weight>
<weight id="1107" MUR="1.0"  MUF="1.0"  PDF="325397" > PDF=325300 MemberID=97 </weight>
<weight id="1108" MUR="1.0"  MUF="1.0"  PDF="325398" > PDF=325300 MemberID=98 </weight>
<weight id="1109" MUR="1.0"  MUF="1.0"  PDF="325399" > PDF=325300 MemberID=99 </weight>
<weight id="1110" MUR="1.0"  MUF="1.0"  PDF="325400" > PDF=325300 MemberID=100 </weight>
<weight id="1111" MUR="1.0"  MUF="1.0"  PDF="325401" > PDF=325300 MemberID=101 </weight>
<weight id="1112" MUR="1.0"  MUF="1.0"  PDF="325402" > PDF=325300 MemberID=102 </weight>
</weightgroup> # PDFSET to PDFSET
<weightgroup name="NNPDF31_nnlo_as_0118_mc" combine="replicas"> # 316200: NNPDF3.1 NNLO global fit, alphas(MZ)=0.118. mem=0 ; average on replicas (setting negative replicas to zero); mem=1-100 ; PDF replicas
<weight id="1113" MUR="1.0"  MUF="1.0"  PDF="316200" > PDF=316200 MemberID=0 </weight>
<weight id="1114" MUR="1.0"  MUF="1.0"  PDF="316201" > PDF=316200 MemberID=1 </weight>
<weight id="1115" MUR="1.0"  MUF="1.0"  PDF="316202" > PDF=316200 MemberID=2 </weight>
<weight id="1116" MUR="1.0"  MUF="1.0"  PDF="316203" > PDF=316200 MemberID=3 </weight>
<weight id="1117" MUR="1.0"  MUF="1.0"  PDF="316204" > PDF=316200 MemberID=4 </weight>
<weight id="1118" MUR="1.0"  MUF="1.0"  PDF="316205" > PDF=316200 MemberID=5 </weight>
<weight id="1119" MUR="1.0"  MUF="1.0"  PDF="316206" > PDF=316200 MemberID=6 </weight>
<weight id="1120" MUR="1.0"  MUF="1.0"  PDF="316207" > PDF=316200 MemberID=7 </weight>
<weight id="1121" MUR="1.0"  MUF="1.0"  PDF="316208" > PDF=316200 MemberID=8 </weight>
<weight id="1122" MUR="1.0"  MUF="1.0"  PDF="316209" > PDF=316200 MemberID=9 </weight>
<weight id="1123" MUR="1.0"  MUF="1.0"  PDF="316210" > PDF=316200 MemberID=10 </weight>
<weight id="1124" MUR="1.0"  MUF="1.0"  PDF="316211" > PDF=316200 MemberID=11 </weight>
<weight id="1125" MUR="1.0"  MUF="1.0"  PDF="316212" > PDF=316200 MemberID=12 </weight>
<weight id="1126" MUR="1.0"  MUF="1.0"  PDF="316213" > PDF=316200 MemberID=13 </weight>
<weight id="1127" MUR="1.0"  MUF="1.0"  PDF="316214" > PDF=316200 MemberID=14 </weight>
<weight id="1128" MUR="1.0"  MUF="1.0"  PDF="316215" > PDF=316200 MemberID=15 </weight>
<weight id="1129" MUR="1.0"  MUF="1.0"  PDF="316216" > PDF=316200 MemberID=16 </weight>
<weight id="1130" MUR="1.0"  MUF="1.0"  PDF="316217" > PDF=316200 MemberID=17 </weight>
<weight id="1131" MUR="1.0"  MUF="1.0"  PDF="316218" > PDF=316200 MemberID=18 </weight>
<weight id="1132" MUR="1.0"  MUF="1.0"  PDF="316219" > PDF=316200 MemberID=19 </weight>
<weight id="1133" MUR="1.0"  MUF="1.0"  PDF="316220" > PDF=316200 MemberID=20 </weight>
<weight id="1134" MUR="1.0"  MUF="1.0"  PDF="316221" > PDF=316200 MemberID=21 </weight>
<weight id="1135" MUR="1.0"  MUF="1.0"  PDF="316222" > PDF=316200 MemberID=22 </weight>
<weight id="1136" MUR="1.0"  MUF="1.0"  PDF="316223" > PDF=316200 MemberID=23 </weight>
<weight id="1137" MUR="1.0"  MUF="1.0"  PDF="316224" > PDF=316200 MemberID=24 </weight>
<weight id="1138" MUR="1.0"  MUF="1.0"  PDF="316225" > PDF=316200 MemberID=25 </weight>
<weight id="1139" MUR="1.0"  MUF="1.0"  PDF="316226" > PDF=316200 MemberID=26 </weight>
<weight id="1140" MUR="1.0"  MUF="1.0"  PDF="316227" > PDF=316200 MemberID=27 </weight>
<weight id="1141" MUR="1.0"  MUF="1.0"  PDF="316228" > PDF=316200 MemberID=28 </weight>
<weight id="1142" MUR="1.0"  MUF="1.0"  PDF="316229" > PDF=316200 MemberID=29 </weight>
<weight id="1143" MUR="1.0"  MUF="1.0"  PDF="316230" > PDF=316200 MemberID=30 </weight>
<weight id="1144" MUR="1.0"  MUF="1.0"  PDF="316231" > PDF=316200 MemberID=31 </weight>
<weight id="1145" MUR="1.0"  MUF="1.0"  PDF="316232" > PDF=316200 MemberID=32 </weight>
<weight id="1146" MUR="1.0"  MUF="1.0"  PDF="316233" > PDF=316200 MemberID=33 </weight>
<weight id="1147" MUR="1.0"  MUF="1.0"  PDF="316234" > PDF=316200 MemberID=34 </weight>
<weight id="1148" MUR="1.0"  MUF="1.0"  PDF="316235" > PDF=316200 MemberID=35 </weight>
<weight id="1149" MUR="1.0"  MUF="1.0"  PDF="316236" > PDF=316200 MemberID=36 </weight>
<weight id="1150" MUR="1.0"  MUF="1.0"  PDF="316237" > PDF=316200 MemberID=37 </weight>
<weight id="1151" MUR="1.0"  MUF="1.0"  PDF="316238" > PDF=316200 MemberID=38 </weight>
<weight id="1152" MUR="1.0"  MUF="1.0"  PDF="316239" > PDF=316200 MemberID=39 </weight>
<weight id="1153" MUR="1.0"  MUF="1.0"  PDF="316240" > PDF=316200 MemberID=40 </weight>
<weight id="1154" MUR="1.0"  MUF="1.0"  PDF="316241" > PDF=316200 MemberID=41 </weight>
<weight id="1155" MUR="1.0"  MUF="1.0"  PDF="316242" > PDF=316200 MemberID=42 </weight>
<weight id="1156" MUR="1.0"  MUF="1.0"  PDF="316243" > PDF=316200 MemberID=43 </weight>
<weight id="1157" MUR="1.0"  MUF="1.0"  PDF="316244" > PDF=316200 MemberID=44 </weight>
<weight id="1158" MUR="1.0"  MUF="1.0"  PDF="316245" > PDF=316200 MemberID=45 </weight>
<weight id="1159" MUR="1.0"  MUF="1.0"  PDF="316246" > PDF=316200 MemberID=46 </weight>
<weight id="1160" MUR="1.0"  MUF="1.0"  PDF="316247" > PDF=316200 MemberID=47 </weight>
<weight id="1161" MUR="1.0"  MUF="1.0"  PDF="316248" > PDF=316200 MemberID=48 </weight>
<weight id="1162" MUR="1.0"  MUF="1.0"  PDF="316249" > PDF=316200 MemberID=49 </weight>
<weight id="1163" MUR="1.0"  MUF="1.0"  PDF="316250" > PDF=316200 MemberID=50 </weight>
<weight id="1164" MUR="1.0"  MUF="1.0"  PDF="316251" > PDF=316200 MemberID=51 </weight>
<weight id="1165" MUR="1.0"  MUF="1.0"  PDF="316252" > PDF=316200 MemberID=52 </weight>
<weight id="1166" MUR="1.0"  MUF="1.0"  PDF="316253" > PDF=316200 MemberID=53 </weight>
<weight id="1167" MUR="1.0"  MUF="1.0"  PDF="316254" > PDF=316200 MemberID=54 </weight>
<weight id="1168" MUR="1.0"  MUF="1.0"  PDF="316255" > PDF=316200 MemberID=55 </weight>
<weight id="1169" MUR="1.0"  MUF="1.0"  PDF="316256" > PDF=316200 MemberID=56 </weight>
<weight id="1170" MUR="1.0"  MUF="1.0"  PDF="316257" > PDF=316200 MemberID=57 </weight>
<weight id="1171" MUR="1.0"  MUF="1.0"  PDF="316258" > PDF=316200 MemberID=58 </weight>
<weight id="1172" MUR="1.0"  MUF="1.0"  PDF="316259" > PDF=316200 MemberID=59 </weight>
<weight id="1173" MUR="1.0"  MUF="1.0"  PDF="316260" > PDF=316200 MemberID=60 </weight>
<weight id="1174" MUR="1.0"  MUF="1.0"  PDF="316261" > PDF=316200 MemberID=61 </weight>
<weight id="1175" MUR="1.0"  MUF="1.0"  PDF="316262" > PDF=316200 MemberID=62 </weight>
<weight id="1176" MUR="1.0"  MUF="1.0"  PDF="316263" > PDF=316200 MemberID=63 </weight>
<weight id="1177" MUR="1.0"  MUF="1.0"  PDF="316264" > PDF=316200 MemberID=64 </weight>
<weight id="1178" MUR="1.0"  MUF="1.0"  PDF="316265" > PDF=316200 MemberID=65 </weight>
<weight id="1179" MUR="1.0"  MUF="1.0"  PDF="316266" > PDF=316200 MemberID=66 </weight>
<weight id="1180" MUR="1.0"  MUF="1.0"  PDF="316267" > PDF=316200 MemberID=67 </weight>
<weight id="1181" MUR="1.0"  MUF="1.0"  PDF="316268" > PDF=316200 MemberID=68 </weight>
<weight id="1182" MUR="1.0"  MUF="1.0"  PDF="316269" > PDF=316200 MemberID=69 </weight>
<weight id="1183" MUR="1.0"  MUF="1.0"  PDF="316270" > PDF=316200 MemberID=70 </weight>
<weight id="1184" MUR="1.0"  MUF="1.0"  PDF="316271" > PDF=316200 MemberID=71 </weight>
<weight id="1185" MUR="1.0"  MUF="1.0"  PDF="316272" > PDF=316200 MemberID=72 </weight>
<weight id="1186" MUR="1.0"  MUF="1.0"  PDF="316273" > PDF=316200 MemberID=73 </weight>
<weight id="1187" MUR="1.0"  MUF="1.0"  PDF="316274" > PDF=316200 MemberID=74 </weight>
<weight id="1188" MUR="1.0"  MUF="1.0"  PDF="316275" > PDF=316200 MemberID=75 </weight>
<weight id="1189" MUR="1.0"  MUF="1.0"  PDF="316276" > PDF=316200 MemberID=76 </weight>
<weight id="1190" MUR="1.0"  MUF="1.0"  PDF="316277" > PDF=316200 MemberID=77 </weight>
<weight id="1191" MUR="1.0"  MUF="1.0"  PDF="316278" > PDF=316200 MemberID=78 </weight>
<weight id="1192" MUR="1.0"  MUF="1.0"  PDF="316279" > PDF=316200 MemberID=79 </weight>
<weight id="1193" MUR="1.0"  MUF="1.0"  PDF="316280" > PDF=316200 MemberID=80 </weight>
<weight id="1194" MUR="1.0"  MUF="1.0"  PDF="316281" > PDF=316200 MemberID=81 </weight>
<weight id="1195" MUR="1.0"  MUF="1.0"  PDF="316282" > PDF=316200 MemberID=82 </weight>
<weight id="1196" MUR="1.0"  MUF="1.0"  PDF="316283" > PDF=316200 MemberID=83 </weight>
<weight id="1197" MUR="1.0"  MUF="1.0"  PDF="316284" > PDF=316200 MemberID=84 </weight>
<weight id="1198" MUR="1.0"  MUF="1.0"  PDF="316285" > PDF=316200 MemberID=85 </weight>
<weight id="1199" MUR="1.0"  MUF="1.0"  PDF="316286" > PDF=316200 MemberID=86 </weight>
<weight id="1200" MUR="1.0"  MUF="1.0"  PDF="316287" > PDF=316200 MemberID=87 </weight>
<weight id="1201" MUR="1.0"  MUF="1.0"  PDF="316288" > PDF=316200 MemberID=88 </weight>
<weight id="1202" MUR="1.0"  MUF="1.0"  PDF="316289" > PDF=316200 MemberID=89 </weight>
<weight id="1203" MUR="1.0"  MUF="1.0"  PDF="316290" > PDF=316200 MemberID=90 </weight>
<weight id="1204" MUR="1.0"  MUF="1.0"  PDF="316291" > PDF=316200 MemberID=91 </weight>
<weight id="1205" MUR="1.0"  MUF="1.0"  PDF="316292" > PDF=316200 MemberID=92 </weight>
<weight id="1206" MUR="1.0"  MUF="1.0"  PDF="316293" > PDF=316200 MemberID=93 </weight>
<weight id="1207" MUR="1.0"  MUF="1.0"  PDF="316294" > PDF=316200 MemberID=94 </weight>
<weight id="1208" MUR="1.0"  MUF="1.0"  PDF="316295" > PDF=316200 MemberID=95 </weight>
<weight id="1209" MUR="1.0"  MUF="1.0"  PDF="316296" > PDF=316200 MemberID=96 </weight>
<weight id="1210" MUR="1.0"  MUF="1.0"  PDF="316297" > PDF=316200 MemberID=97 </weight>
<weight id="1211" MUR="1.0"  MUF="1.0"  PDF="316298" > PDF=316200 MemberID=98 </weight>
<weight id="1212" MUR="1.0"  MUF="1.0"  PDF="316299" > PDF=316200 MemberID=99 </weight>
<weight id="1213" MUR="1.0"  MUF="1.0"  PDF="316300" > PDF=316200 MemberID=100 </weight>
</weightgroup> # PDFSET to PDF
<weight id="1214" MUR="1.0"  MUF="1.0"  PDF="306000" > PDF=306000 MemberID=0 </weight>
<weight id="1215" MUR="1.0"  MUF="1.0"  PDF="322500" > PDF=322500 MemberID=0 </weight>
<weight id="1216" MUR="1.0"  MUF="1.0"  PDF="322700" > PDF=322700 MemberID=0 </weight>
<weight id="1217" MUR="1.0"  MUF="1.0"  PDF="322900" > PDF=322900 MemberID=0 </weight>
<weight id="1218" MUR="1.0"  MUF="1.0"  PDF="323100" > PDF=323100 MemberID=0 </weight>
<weight id="1219" MUR="1.0"  MUF="1.0"  PDF="323300" > PDF=323300 MemberID=0 </weight>
<weight id="1220" MUR="1.0"  MUF="1.0"  PDF="323500" > PDF=323500 MemberID=0 </weight>
<weight id="1221" MUR="1.0"  MUF="1.0"  PDF="323700" > PDF=323700 MemberID=0 </weight>
<weight id="1222" MUR="1.0"  MUF="1.0"  PDF="323900" > PDF=323900 MemberID=0 </weight>
<weightgroup name="NNPDF31_nlo_hessian_pdfas" combine="symmhessian+as"> # 305800: Hessian conversion of NNPDF31_nlo_as_0118_1000, mem=0 ; central value Alphas(MZ)=0.118; mem=1-100 ; PDF eig.; mem=101 ; central value Alphas(MZ)=0.116; mem=102 ; central value Alphas(MZ)=0.120
<weight id="1223" MUR="1.0"  MUF="1.0"  PDF="305800" > PDF=305800 MemberID=0 </weight>
<weight id="1224" MUR="1.0"  MUF="1.0"  PDF="305801" > PDF=305800 MemberID=1 </weight>
<weight id="1225" MUR="1.0"  MUF="1.0"  PDF="305802" > PDF=305800 MemberID=2 </weight>
<weight id="1226" MUR="1.0"  MUF="1.0"  PDF="305803" > PDF=305800 MemberID=3 </weight>
<weight id="1227" MUR="1.0"  MUF="1.0"  PDF="305804" > PDF=305800 MemberID=4 </weight>
<weight id="1228" MUR="1.0"  MUF="1.0"  PDF="305805" > PDF=305800 MemberID=5 </weight>
<weight id="1229" MUR="1.0"  MUF="1.0"  PDF="305806" > PDF=305800 MemberID=6 </weight>
<weight id="1230" MUR="1.0"  MUF="1.0"  PDF="305807" > PDF=305800 MemberID=7 </weight>
<weight id="1231" MUR="1.0"  MUF="1.0"  PDF="305808" > PDF=305800 MemberID=8 </weight>
<weight id="1232" MUR="1.0"  MUF="1.0"  PDF="305809" > PDF=305800 MemberID=9 </weight>
<weight id="1233" MUR="1.0"  MUF="1.0"  PDF="305810" > PDF=305800 MemberID=10 </weight>
<weight id="1234" MUR="1.0"  MUF="1.0"  PDF="305811" > PDF=305800 MemberID=11 </weight>
<weight id="1235" MUR="1.0"  MUF="1.0"  PDF="305812" > PDF=305800 MemberID=12 </weight>
<weight id="1236" MUR="1.0"  MUF="1.0"  PDF="305813" > PDF=305800 MemberID=13 </weight>
<weight id="1237" MUR="1.0"  MUF="1.0"  PDF="305814" > PDF=305800 MemberID=14 </weight>
<weight id="1238" MUR="1.0"  MUF="1.0"  PDF="305815" > PDF=305800 MemberID=15 </weight>
<weight id="1239" MUR="1.0"  MUF="1.0"  PDF="305816" > PDF=305800 MemberID=16 </weight>
<weight id="1240" MUR="1.0"  MUF="1.0"  PDF="305817" > PDF=305800 MemberID=17 </weight>
<weight id="1241" MUR="1.0"  MUF="1.0"  PDF="305818" > PDF=305800 MemberID=18 </weight>
<weight id="1242" MUR="1.0"  MUF="1.0"  PDF="305819" > PDF=305800 MemberID=19 </weight>
<weight id="1243" MUR="1.0"  MUF="1.0"  PDF="305820" > PDF=305800 MemberID=20 </weight>
<weight id="1244" MUR="1.0"  MUF="1.0"  PDF="305821" > PDF=305800 MemberID=21 </weight>
<weight id="1245" MUR="1.0"  MUF="1.0"  PDF="305822" > PDF=305800 MemberID=22 </weight>
<weight id="1246" MUR="1.0"  MUF="1.0"  PDF="305823" > PDF=305800 MemberID=23 </weight>
<weight id="1247" MUR="1.0"  MUF="1.0"  PDF="305824" > PDF=305800 MemberID=24 </weight>
<weight id="1248" MUR="1.0"  MUF="1.0"  PDF="305825" > PDF=305800 MemberID=25 </weight>
<weight id="1249" MUR="1.0"  MUF="1.0"  PDF="305826" > PDF=305800 MemberID=26 </weight>
<weight id="1250" MUR="1.0"  MUF="1.0"  PDF="305827" > PDF=305800 MemberID=27 </weight>
<weight id="1251" MUR="1.0"  MUF="1.0"  PDF="305828" > PDF=305800 MemberID=28 </weight>
<weight id="1252" MUR="1.0"  MUF="1.0"  PDF="305829" > PDF=305800 MemberID=29 </weight>
<weight id="1253" MUR="1.0"  MUF="1.0"  PDF="305830" > PDF=305800 MemberID=30 </weight>
<weight id="1254" MUR="1.0"  MUF="1.0"  PDF="305831" > PDF=305800 MemberID=31 </weight>
<weight id="1255" MUR="1.0"  MUF="1.0"  PDF="305832" > PDF=305800 MemberID=32 </weight>
<weight id="1256" MUR="1.0"  MUF="1.0"  PDF="305833" > PDF=305800 MemberID=33 </weight>
<weight id="1257" MUR="1.0"  MUF="1.0"  PDF="305834" > PDF=305800 MemberID=34 </weight>
<weight id="1258" MUR="1.0"  MUF="1.0"  PDF="305835" > PDF=305800 MemberID=35 </weight>
<weight id="1259" MUR="1.0"  MUF="1.0"  PDF="305836" > PDF=305800 MemberID=36 </weight>
<weight id="1260" MUR="1.0"  MUF="1.0"  PDF="305837" > PDF=305800 MemberID=37 </weight>
<weight id="1261" MUR="1.0"  MUF="1.0"  PDF="305838" > PDF=305800 MemberID=38 </weight>
<weight id="1262" MUR="1.0"  MUF="1.0"  PDF="305839" > PDF=305800 MemberID=39 </weight>
<weight id="1263" MUR="1.0"  MUF="1.0"  PDF="305840" > PDF=305800 MemberID=40 </weight>
<weight id="1264" MUR="1.0"  MUF="1.0"  PDF="305841" > PDF=305800 MemberID=41 </weight>
<weight id="1265" MUR="1.0"  MUF="1.0"  PDF="305842" > PDF=305800 MemberID=42 </weight>
<weight id="1266" MUR="1.0"  MUF="1.0"  PDF="305843" > PDF=305800 MemberID=43 </weight>
<weight id="1267" MUR="1.0"  MUF="1.0"  PDF="305844" > PDF=305800 MemberID=44 </weight>
<weight id="1268" MUR="1.0"  MUF="1.0"  PDF="305845" > PDF=305800 MemberID=45 </weight>
<weight id="1269" MUR="1.0"  MUF="1.0"  PDF="305846" > PDF=305800 MemberID=46 </weight>
<weight id="1270" MUR="1.0"  MUF="1.0"  PDF="305847" > PDF=305800 MemberID=47 </weight>
<weight id="1271" MUR="1.0"  MUF="1.0"  PDF="305848" > PDF=305800 MemberID=48 </weight>
<weight id="1272" MUR="1.0"  MUF="1.0"  PDF="305849" > PDF=305800 MemberID=49 </weight>
<weight id="1273" MUR="1.0"  MUF="1.0"  PDF="305850" > PDF=305800 MemberID=50 </weight>
<weight id="1274" MUR="1.0"  MUF="1.0"  PDF="305851" > PDF=305800 MemberID=51 </weight>
<weight id="1275" MUR="1.0"  MUF="1.0"  PDF="305852" > PDF=305800 MemberID=52 </weight>
<weight id="1276" MUR="1.0"  MUF="1.0"  PDF="305853" > PDF=305800 MemberID=53 </weight>
<weight id="1277" MUR="1.0"  MUF="1.0"  PDF="305854" > PDF=305800 MemberID=54 </weight>
<weight id="1278" MUR="1.0"  MUF="1.0"  PDF="305855" > PDF=305800 MemberID=55 </weight>
<weight id="1279" MUR="1.0"  MUF="1.0"  PDF="305856" > PDF=305800 MemberID=56 </weight>
<weight id="1280" MUR="1.0"  MUF="1.0"  PDF="305857" > PDF=305800 MemberID=57 </weight>
<weight id="1281" MUR="1.0"  MUF="1.0"  PDF="305858" > PDF=305800 MemberID=58 </weight>
<weight id="1282" MUR="1.0"  MUF="1.0"  PDF="305859" > PDF=305800 MemberID=59 </weight>
<weight id="1283" MUR="1.0"  MUF="1.0"  PDF="305860" > PDF=305800 MemberID=60 </weight>
<weight id="1284" MUR="1.0"  MUF="1.0"  PDF="305861" > PDF=305800 MemberID=61 </weight>
<weight id="1285" MUR="1.0"  MUF="1.0"  PDF="305862" > PDF=305800 MemberID=62 </weight>
<weight id="1286" MUR="1.0"  MUF="1.0"  PDF="305863" > PDF=305800 MemberID=63 </weight>
<weight id="1287" MUR="1.0"  MUF="1.0"  PDF="305864" > PDF=305800 MemberID=64 </weight>
<weight id="1288" MUR="1.0"  MUF="1.0"  PDF="305865" > PDF=305800 MemberID=65 </weight>
<weight id="1289" MUR="1.0"  MUF="1.0"  PDF="305866" > PDF=305800 MemberID=66 </weight>
<weight id="1290" MUR="1.0"  MUF="1.0"  PDF="305867" > PDF=305800 MemberID=67 </weight>
<weight id="1291" MUR="1.0"  MUF="1.0"  PDF="305868" > PDF=305800 MemberID=68 </weight>
<weight id="1292" MUR="1.0"  MUF="1.0"  PDF="305869" > PDF=305800 MemberID=69 </weight>
<weight id="1293" MUR="1.0"  MUF="1.0"  PDF="305870" > PDF=305800 MemberID=70 </weight>
<weight id="1294" MUR="1.0"  MUF="1.0"  PDF="305871" > PDF=305800 MemberID=71 </weight>
<weight id="1295" MUR="1.0"  MUF="1.0"  PDF="305872" > PDF=305800 MemberID=72 </weight>
<weight id="1296" MUR="1.0"  MUF="1.0"  PDF="305873" > PDF=305800 MemberID=73 </weight>
<weight id="1297" MUR="1.0"  MUF="1.0"  PDF="305874" > PDF=305800 MemberID=74 </weight>
<weight id="1298" MUR="1.0"  MUF="1.0"  PDF="305875" > PDF=305800 MemberID=75 </weight>
<weight id="1299" MUR="1.0"  MUF="1.0"  PDF="305876" > PDF=305800 MemberID=76 </weight>
<weight id="1300" MUR="1.0"  MUF="1.0"  PDF="305877" > PDF=305800 MemberID=77 </weight>
<weight id="1301" MUR="1.0"  MUF="1.0"  PDF="305878" > PDF=305800 MemberID=78 </weight>
<weight id="1302" MUR="1.0"  MUF="1.0"  PDF="305879" > PDF=305800 MemberID=79 </weight>
<weight id="1303" MUR="1.0"  MUF="1.0"  PDF="305880" > PDF=305800 MemberID=80 </weight>
<weight id="1304" MUR="1.0"  MUF="1.0"  PDF="305881" > PDF=305800 MemberID=81 </weight>
<weight id="1305" MUR="1.0"  MUF="1.0"  PDF="305882" > PDF=305800 MemberID=82 </weight>
<weight id="1306" MUR="1.0"  MUF="1.0"  PDF="305883" > PDF=305800 MemberID=83 </weight>
<weight id="1307" MUR="1.0"  MUF="1.0"  PDF="305884" > PDF=305800 MemberID=84 </weight>
<weight id="1308" MUR="1.0"  MUF="1.0"  PDF="305885" > PDF=305800 MemberID=85 </weight>
<weight id="1309" MUR="1.0"  MUF="1.0"  PDF="305886" > PDF=305800 MemberID=86 </weight>
<weight id="1310" MUR="1.0"  MUF="1.0"  PDF="305887" > PDF=305800 MemberID=87 </weight>
<weight id="1311" MUR="1.0"  MUF="1.0"  PDF="305888" > PDF=305800 MemberID=88 </weight>
<weight id="1312" MUR="1.0"  MUF="1.0"  PDF="305889" > PDF=305800 MemberID=89 </weight>
<weight id="1313" MUR="1.0"  MUF="1.0"  PDF="305890" > PDF=305800 MemberID=90 </weight>
<weight id="1314" MUR="1.0"  MUF="1.0"  PDF="305891" > PDF=305800 MemberID=91 </weight>
<weight id="1315" MUR="1.0"  MUF="1.0"  PDF="305892" > PDF=305800 MemberID=92 </weight>
<weight id="1316" MUR="1.0"  MUF="1.0"  PDF="305893" > PDF=305800 MemberID=93 </weight>
<weight id="1317" MUR="1.0"  MUF="1.0"  PDF="305894" > PDF=305800 MemberID=94 </weight>
<weight id="1318" MUR="1.0"  MUF="1.0"  PDF="305895" > PDF=305800 MemberID=95 </weight>
<weight id="1319" MUR="1.0"  MUF="1.0"  PDF="305896" > PDF=305800 MemberID=96 </weight>
<weight id="1320" MUR="1.0"  MUF="1.0"  PDF="305897" > PDF=305800 MemberID=97 </weight>
<weight id="1321" MUR="1.0"  MUF="1.0"  PDF="305898" > PDF=305800 MemberID=98 </weight>
<weight id="1322" MUR="1.0"  MUF="1.0"  PDF="305899" > PDF=305800 MemberID=99 </weight>
<weight id="1323" MUR="1.0"  MUF="1.0"  PDF="305900" > PDF=305800 MemberID=100 </weight>
<weight id="1324" MUR="1.0"  MUF="1.0"  PDF="305901" > PDF=305800 MemberID=101 </weight>
<weight id="1325" MUR="1.0"  MUF="1.0"  PDF="305902" > PDF=305800 MemberID=102 </weight>
</weightgroup> # PDFSET to PDF
<weight id="1326" MUR="1.0"  MUF="1.0"  PDF="303200" > PDF=303200 MemberID=0 </weight>
<weight id="1327" MUR="1.0"  MUF="1.0"  PDF="292200" > PDF=292200 MemberID=0 </weight>
<weightgroup name="NNPDF40_nnlo_pdfas" combine="replicas+as"> # 331300: NNPDF4.0 NNLO global fit, alphas(MZ)=0.1180. mem=0 ; average on replicas 1-100; mem=1-100 ; PDF replicas; mem=101 ; central value alphas(MZ)=0.1170; mem=102 ; central value alphas(MZ)=0.1190
<weight id="1328" MUR="1.0"  MUF="1.0"  PDF="331300" > PDF=331300 MemberID=0 </weight>
<weight id="1329" MUR="1.0"  MUF="1.0"  PDF="331301" > PDF=331300 MemberID=1 </weight>
<weight id="1330" MUR="1.0"  MUF="1.0"  PDF="331302" > PDF=331300 MemberID=2 </weight>
<weight id="1331" MUR="1.0"  MUF="1.0"  PDF="331303" > PDF=331300 MemberID=3 </weight>
<weight id="1332" MUR="1.0"  MUF="1.0"  PDF="331304" > PDF=331300 MemberID=4 </weight>
<weight id="1333" MUR="1.0"  MUF="1.0"  PDF="331305" > PDF=331300 MemberID=5 </weight>
<weight id="1334" MUR="1.0"  MUF="1.0"  PDF="331306" > PDF=331300 MemberID=6 </weight>
<weight id="1335" MUR="1.0"  MUF="1.0"  PDF="331307" > PDF=331300 MemberID=7 </weight>
<weight id="1336" MUR="1.0"  MUF="1.0"  PDF="331308" > PDF=331300 MemberID=8 </weight>
<weight id="1337" MUR="1.0"  MUF="1.0"  PDF="331309" > PDF=331300 MemberID=9 </weight>
<weight id="1338" MUR="1.0"  MUF="1.0"  PDF="331310" > PDF=331300 MemberID=10 </weight>
<weight id="1339" MUR="1.0"  MUF="1.0"  PDF="331311" > PDF=331300 MemberID=11 </weight>
<weight id="1340" MUR="1.0"  MUF="1.0"  PDF="331312" > PDF=331300 MemberID=12 </weight>
<weight id="1341" MUR="1.0"  MUF="1.0"  PDF="331313" > PDF=331300 MemberID=13 </weight>
<weight id="1342" MUR="1.0"  MUF="1.0"  PDF="331314" > PDF=331300 MemberID=14 </weight>
<weight id="1343" MUR="1.0"  MUF="1.0"  PDF="331315" > PDF=331300 MemberID=15 </weight>
<weight id="1344" MUR="1.0"  MUF="1.0"  PDF="331316" > PDF=331300 MemberID=16 </weight>
<weight id="1345" MUR="1.0"  MUF="1.0"  PDF="331317" > PDF=331300 MemberID=17 </weight>
<weight id="1346" MUR="1.0"  MUF="1.0"  PDF="331318" > PDF=331300 MemberID=18 </weight>
<weight id="1347" MUR="1.0"  MUF="1.0"  PDF="331319" > PDF=331300 MemberID=19 </weight>
<weight id="1348" MUR="1.0"  MUF="1.0"  PDF="331320" > PDF=331300 MemberID=20 </weight>
<weight id="1349" MUR="1.0"  MUF="1.0"  PDF="331321" > PDF=331300 MemberID=21 </weight>
<weight id="1350" MUR="1.0"  MUF="1.0"  PDF="331322" > PDF=331300 MemberID=22 </weight>
<weight id="1351" MUR="1.0"  MUF="1.0"  PDF="331323" > PDF=331300 MemberID=23 </weight>
<weight id="1352" MUR="1.0"  MUF="1.0"  PDF="331324" > PDF=331300 MemberID=24 </weight>
<weight id="1353" MUR="1.0"  MUF="1.0"  PDF="331325" > PDF=331300 MemberID=25 </weight>
<weight id="1354" MUR="1.0"  MUF="1.0"  PDF="331326" > PDF=331300 MemberID=26 </weight>
<weight id="1355" MUR="1.0"  MUF="1.0"  PDF="331327" > PDF=331300 MemberID=27 </weight>
<weight id="1356" MUR="1.0"  MUF="1.0"  PDF="331328" > PDF=331300 MemberID=28 </weight>
<weight id="1357" MUR="1.0"  MUF="1.0"  PDF="331329" > PDF=331300 MemberID=29 </weight>
<weight id="1358" MUR="1.0"  MUF="1.0"  PDF="331330" > PDF=331300 MemberID=30 </weight>
<weight id="1359" MUR="1.0"  MUF="1.0"  PDF="331331" > PDF=331300 MemberID=31 </weight>
<weight id="1360" MUR="1.0"  MUF="1.0"  PDF="331332" > PDF=331300 MemberID=32 </weight>
<weight id="1361" MUR="1.0"  MUF="1.0"  PDF="331333" > PDF=331300 MemberID=33 </weight>
<weight id="1362" MUR="1.0"  MUF="1.0"  PDF="331334" > PDF=331300 MemberID=34 </weight>
<weight id="1363" MUR="1.0"  MUF="1.0"  PDF="331335" > PDF=331300 MemberID=35 </weight>
<weight id="1364" MUR="1.0"  MUF="1.0"  PDF="331336" > PDF=331300 MemberID=36 </weight>
<weight id="1365" MUR="1.0"  MUF="1.0"  PDF="331337" > PDF=331300 MemberID=37 </weight>
<weight id="1366" MUR="1.0"  MUF="1.0"  PDF="331338" > PDF=331300 MemberID=38 </weight>
<weight id="1367" MUR="1.0"  MUF="1.0"  PDF="331339" > PDF=331300 MemberID=39 </weight>
<weight id="1368" MUR="1.0"  MUF="1.0"  PDF="331340" > PDF=331300 MemberID=40 </weight>
<weight id="1369" MUR="1.0"  MUF="1.0"  PDF="331341" > PDF=331300 MemberID=41 </weight>
<weight id="1370" MUR="1.0"  MUF="1.0"  PDF="331342" > PDF=331300 MemberID=42 </weight>
<weight id="1371" MUR="1.0"  MUF="1.0"  PDF="331343" > PDF=331300 MemberID=43 </weight>
<weight id="1372" MUR="1.0"  MUF="1.0"  PDF="331344" > PDF=331300 MemberID=44 </weight>
<weight id="1373" MUR="1.0"  MUF="1.0"  PDF="331345" > PDF=331300 MemberID=45 </weight>
<weight id="1374" MUR="1.0"  MUF="1.0"  PDF="331346" > PDF=331300 MemberID=46 </weight>
<weight id="1375" MUR="1.0"  MUF="1.0"  PDF="331347" > PDF=331300 MemberID=47 </weight>
<weight id="1376" MUR="1.0"  MUF="1.0"  PDF="331348" > PDF=331300 MemberID=48 </weight>
<weight id="1377" MUR="1.0"  MUF="1.0"  PDF="331349" > PDF=331300 MemberID=49 </weight>
<weight id="1378" MUR="1.0"  MUF="1.0"  PDF="331350" > PDF=331300 MemberID=50 </weight>
<weight id="1379" MUR="1.0"  MUF="1.0"  PDF="331351" > PDF=331300 MemberID=51 </weight>
<weight id="1380" MUR="1.0"  MUF="1.0"  PDF="331352" > PDF=331300 MemberID=52 </weight>
<weight id="1381" MUR="1.0"  MUF="1.0"  PDF="331353" > PDF=331300 MemberID=53 </weight>
<weight id="1382" MUR="1.0"  MUF="1.0"  PDF="331354" > PDF=331300 MemberID=54 </weight>
<weight id="1383" MUR="1.0"  MUF="1.0"  PDF="331355" > PDF=331300 MemberID=55 </weight>
<weight id="1384" MUR="1.0"  MUF="1.0"  PDF="331356" > PDF=331300 MemberID=56 </weight>
<weight id="1385" MUR="1.0"  MUF="1.0"  PDF="331357" > PDF=331300 MemberID=57 </weight>
<weight id="1386" MUR="1.0"  MUF="1.0"  PDF="331358" > PDF=331300 MemberID=58 </weight>
<weight id="1387" MUR="1.0"  MUF="1.0"  PDF="331359" > PDF=331300 MemberID=59 </weight>
<weight id="1388" MUR="1.0"  MUF="1.0"  PDF="331360" > PDF=331300 MemberID=60 </weight>
<weight id="1389" MUR="1.0"  MUF="1.0"  PDF="331361" > PDF=331300 MemberID=61 </weight>
<weight id="1390" MUR="1.0"  MUF="1.0"  PDF="331362" > PDF=331300 MemberID=62 </weight>
<weight id="1391" MUR="1.0"  MUF="1.0"  PDF="331363" > PDF=331300 MemberID=63 </weight>
<weight id="1392" MUR="1.0"  MUF="1.0"  PDF="331364" > PDF=331300 MemberID=64 </weight>
<weight id="1393" MUR="1.0"  MUF="1.0"  PDF="331365" > PDF=331300 MemberID=65 </weight>
<weight id="1394" MUR="1.0"  MUF="1.0"  PDF="331366" > PDF=331300 MemberID=66 </weight>
<weight id="1395" MUR="1.0"  MUF="1.0"  PDF="331367" > PDF=331300 MemberID=67 </weight>
<weight id="1396" MUR="1.0"  MUF="1.0"  PDF="331368" > PDF=331300 MemberID=68 </weight>
<weight id="1397" MUR="1.0"  MUF="1.0"  PDF="331369" > PDF=331300 MemberID=69 </weight>
<weight id="1398" MUR="1.0"  MUF="1.0"  PDF="331370" > PDF=331300 MemberID=70 </weight>
<weight id="1399" MUR="1.0"  MUF="1.0"  PDF="331371" > PDF=331300 MemberID=71 </weight>
<weight id="1400" MUR="1.0"  MUF="1.0"  PDF="331372" > PDF=331300 MemberID=72 </weight>
<weight id="1401" MUR="1.0"  MUF="1.0"  PDF="331373" > PDF=331300 MemberID=73 </weight>
<weight id="1402" MUR="1.0"  MUF="1.0"  PDF="331374" > PDF=331300 MemberID=74 </weight>
<weight id="1403" MUR="1.0"  MUF="1.0"  PDF="331375" > PDF=331300 MemberID=75 </weight>
<weight id="1404" MUR="1.0"  MUF="1.0"  PDF="331376" > PDF=331300 MemberID=76 </weight>
<weight id="1405" MUR="1.0"  MUF="1.0"  PDF="331377" > PDF=331300 MemberID=77 </weight>
<weight id="1406" MUR="1.0"  MUF="1.0"  PDF="331378" > PDF=331300 MemberID=78 </weight>
<weight id="1407" MUR="1.0"  MUF="1.0"  PDF="331379" > PDF=331300 MemberID=79 </weight>
<weight id="1408" MUR="1.0"  MUF="1.0"  PDF="331380" > PDF=331300 MemberID=80 </weight>
<weight id="1409" MUR="1.0"  MUF="1.0"  PDF="331381" > PDF=331300 MemberID=81 </weight>
<weight id="1410" MUR="1.0"  MUF="1.0"  PDF="331382" > PDF=331300 MemberID=82 </weight>
<weight id="1411" MUR="1.0"  MUF="1.0"  PDF="331383" > PDF=331300 MemberID=83 </weight>
<weight id="1412" MUR="1.0"  MUF="1.0"  PDF="331384" > PDF=331300 MemberID=84 </weight>
<weight id="1413" MUR="1.0"  MUF="1.0"  PDF="331385" > PDF=331300 MemberID=85 </weight>
<weight id="1414" MUR="1.0"  MUF="1.0"  PDF="331386" > PDF=331300 MemberID=86 </weight>
<weight id="1415" MUR="1.0"  MUF="1.0"  PDF="331387" > PDF=331300 MemberID=87 </weight>
<weight id="1416" MUR="1.0"  MUF="1.0"  PDF="331388" > PDF=331300 MemberID=88 </weight>
<weight id="1417" MUR="1.0"  MUF="1.0"  PDF="331389" > PDF=331300 MemberID=89 </weight>
<weight id="1418" MUR="1.0"  MUF="1.0"  PDF="331390" > PDF=331300 MemberID=90 </weight>
<weight id="1419" MUR="1.0"  MUF="1.0"  PDF="331391" > PDF=331300 MemberID=91 </weight>
<weight id="1420" MUR="1.0"  MUF="1.0"  PDF="331392" > PDF=331300 MemberID=92 </weight>
<weight id="1421" MUR="1.0"  MUF="1.0"  PDF="331393" > PDF=331300 MemberID=93 </weight>
<weight id="1422" MUR="1.0"  MUF="1.0"  PDF="331394" > PDF=331300 MemberID=94 </weight>
<weight id="1423" MUR="1.0"  MUF="1.0"  PDF="331395" > PDF=331300 MemberID=95 </weight>
<weight id="1424" MUR="1.0"  MUF="1.0"  PDF="331396" > PDF=331300 MemberID=96 </weight>
<weight id="1425" MUR="1.0"  MUF="1.0"  PDF="331397" > PDF=331300 MemberID=97 </weight>
<weight id="1426" MUR="1.0"  MUF="1.0"  PDF="331398" > PDF=331300 MemberID=98 </weight>
<weight id="1427" MUR="1.0"  MUF="1.0"  PDF="331399" > PDF=331300 MemberID=99 </weight>
<weight id="1428" MUR="1.0"  MUF="1.0"  PDF="331400" > PDF=331300 MemberID=100 </weight>
<weight id="1429" MUR="1.0"  MUF="1.0"  PDF="331401" > PDF=331300 MemberID=101 </weight>
<weight id="1430" MUR="1.0"  MUF="1.0"  PDF="331402" > PDF=331300 MemberID=102 </weight>
</weightgroup> # PDFSET to PDFSET
<weightgroup name="NNPDF40_nnlo_hessian_pdfas" combine="symmhessian+as"> # 331600: Hessian conversion of NNPDF40_nnlo_as_01180_1000; mem=0 central value ; alphas(MZ)=0.1180; mem=1-50 ; eigenvector sets; mem=51 ; alphas(MZ)=0.1170; mem=52 ; alphas(MZ)=0.1190
<weight id="1431" MUR="1.0"  MUF="1.0"  PDF="331600" > PDF=331600 MemberID=0 </weight>
<weight id="1432" MUR="1.0"  MUF="1.0"  PDF="331601" > PDF=331600 MemberID=1 </weight>
<weight id="1433" MUR="1.0"  MUF="1.0"  PDF="331602" > PDF=331600 MemberID=2 </weight>
<weight id="1434" MUR="1.0"  MUF="1.0"  PDF="331603" > PDF=331600 MemberID=3 </weight>
<weight id="1435" MUR="1.0"  MUF="1.0"  PDF="331604" > PDF=331600 MemberID=4 </weight>
<weight id="1436" MUR="1.0"  MUF="1.0"  PDF="331605" > PDF=331600 MemberID=5 </weight>
<weight id="1437" MUR="1.0"  MUF="1.0"  PDF="331606" > PDF=331600 MemberID=6 </weight>
<weight id="1438" MUR="1.0"  MUF="1.0"  PDF="331607" > PDF=331600 MemberID=7 </weight>
<weight id="1439" MUR="1.0"  MUF="1.0"  PDF="331608" > PDF=331600 MemberID=8 </weight>
<weight id="1440" MUR="1.0"  MUF="1.0"  PDF="331609" > PDF=331600 MemberID=9 </weight>
<weight id="1441" MUR="1.0"  MUF="1.0"  PDF="331610" > PDF=331600 MemberID=10 </weight>
<weight id="1442" MUR="1.0"  MUF="1.0"  PDF="331611" > PDF=331600 MemberID=11 </weight>
<weight id="1443" MUR="1.0"  MUF="1.0"  PDF="331612" > PDF=331600 MemberID=12 </weight>
<weight id="1444" MUR="1.0"  MUF="1.0"  PDF="331613" > PDF=331600 MemberID=13 </weight>
<weight id="1445" MUR="1.0"  MUF="1.0"  PDF="331614" > PDF=331600 MemberID=14 </weight>
<weight id="1446" MUR="1.0"  MUF="1.0"  PDF="331615" > PDF=331600 MemberID=15 </weight>
<weight id="1447" MUR="1.0"  MUF="1.0"  PDF="331616" > PDF=331600 MemberID=16 </weight>
<weight id="1448" MUR="1.0"  MUF="1.0"  PDF="331617" > PDF=331600 MemberID=17 </weight>
<weight id="1449" MUR="1.0"  MUF="1.0"  PDF="331618" > PDF=331600 MemberID=18 </weight>
<weight id="1450" MUR="1.0"  MUF="1.0"  PDF="331619" > PDF=331600 MemberID=19 </weight>
<weight id="1451" MUR="1.0"  MUF="1.0"  PDF="331620" > PDF=331600 MemberID=20 </weight>
<weight id="1452" MUR="1.0"  MUF="1.0"  PDF="331621" > PDF=331600 MemberID=21 </weight>
<weight id="1453" MUR="1.0"  MUF="1.0"  PDF="331622" > PDF=331600 MemberID=22 </weight>
<weight id="1454" MUR="1.0"  MUF="1.0"  PDF="331623" > PDF=331600 MemberID=23 </weight>
<weight id="1455" MUR="1.0"  MUF="1.0"  PDF="331624" > PDF=331600 MemberID=24 </weight>
<weight id="1456" MUR="1.0"  MUF="1.0"  PDF="331625" > PDF=331600 MemberID=25 </weight>
<weight id="1457" MUR="1.0"  MUF="1.0"  PDF="331626" > PDF=331600 MemberID=26 </weight>
<weight id="1458" MUR="1.0"  MUF="1.0"  PDF="331627" > PDF=331600 MemberID=27 </weight>
<weight id="1459" MUR="1.0"  MUF="1.0"  PDF="331628" > PDF=331600 MemberID=28 </weight>
<weight id="1460" MUR="1.0"  MUF="1.0"  PDF="331629" > PDF=331600 MemberID=29 </weight>
<weight id="1461" MUR="1.0"  MUF="1.0"  PDF="331630" > PDF=331600 MemberID=30 </weight>
<weight id="1462" MUR="1.0"  MUF="1.0"  PDF="331631" > PDF=331600 MemberID=31 </weight>
<weight id="1463" MUR="1.0"  MUF="1.0"  PDF="331632" > PDF=331600 MemberID=32 </weight>
<weight id="1464" MUR="1.0"  MUF="1.0"  PDF="331633" > PDF=331600 MemberID=33 </weight>
<weight id="1465" MUR="1.0"  MUF="1.0"  PDF="331634" > PDF=331600 MemberID=34 </weight>
<weight id="1466" MUR="1.0"  MUF="1.0"  PDF="331635" > PDF=331600 MemberID=35 </weight>
<weight id="1467" MUR="1.0"  MUF="1.0"  PDF="331636" > PDF=331600 MemberID=36 </weight>
<weight id="1468" MUR="1.0"  MUF="1.0"  PDF="331637" > PDF=331600 MemberID=37 </weight>
<weight id="1469" MUR="1.0"  MUF="1.0"  PDF="331638" > PDF=331600 MemberID=38 </weight>
<weight id="1470" MUR="1.0"  MUF="1.0"  PDF="331639" > PDF=331600 MemberID=39 </weight>
<weight id="1471" MUR="1.0"  MUF="1.0"  PDF="331640" > PDF=331600 MemberID=40 </weight>
<weight id="1472" MUR="1.0"  MUF="1.0"  PDF="331641" > PDF=331600 MemberID=41 </weight>
<weight id="1473" MUR="1.0"  MUF="1.0"  PDF="331642" > PDF=331600 MemberID=42 </weight>
<weight id="1474" MUR="1.0"  MUF="1.0"  PDF="331643" > PDF=331600 MemberID=43 </weight>
<weight id="1475" MUR="1.0"  MUF="1.0"  PDF="331644" > PDF=331600 MemberID=44 </weight>
<weight id="1476" MUR="1.0"  MUF="1.0"  PDF="331645" > PDF=331600 MemberID=45 </weight>
<weight id="1477" MUR="1.0"  MUF="1.0"  PDF="331646" > PDF=331600 MemberID=46 </weight>
<weight id="1478" MUR="1.0"  MUF="1.0"  PDF="331647" > PDF=331600 MemberID=47 </weight>
<weight id="1479" MUR="1.0"  MUF="1.0"  PDF="331648" > PDF=331600 MemberID=48 </weight>
<weight id="1480" MUR="1.0"  MUF="1.0"  PDF="331649" > PDF=331600 MemberID=49 </weight>
<weight id="1481" MUR="1.0"  MUF="1.0"  PDF="331650" > PDF=331600 MemberID=50 </weight>
<weight id="1482" MUR="1.0"  MUF="1.0"  PDF="331651" > PDF=331600 MemberID=51 </weight>
<weight id="1483" MUR="1.0"  MUF="1.0"  PDF="331652" > PDF=331600 MemberID=52 </weight>
</weightgroup> # PDFSET to PDFSET
<weightgroup name="NNPDF40_nnlo_pch_as_01180" combine="replicas"> # 332100: NNPDF4.0 NNLO global fit (perturbative charm), alphas(MZ)=0.1180. mem=0 ; average on replicas; mem=1-100 ; PDF replicas
<weight id="1484" MUR="1.0"  MUF="1.0"  PDF="332100" > PDF=332100 MemberID=0 </weight>
<weight id="1485" MUR="1.0"  MUF="1.0"  PDF="332101" > PDF=332100 MemberID=1 </weight>
<weight id="1486" MUR="1.0"  MUF="1.0"  PDF="332102" > PDF=332100 MemberID=2 </weight>
<weight id="1487" MUR="1.0"  MUF="1.0"  PDF="332103" > PDF=332100 MemberID=3 </weight>
<weight id="1488" MUR="1.0"  MUF="1.0"  PDF="332104" > PDF=332100 MemberID=4 </weight>
<weight id="1489" MUR="1.0"  MUF="1.0"  PDF="332105" > PDF=332100 MemberID=5 </weight>
<weight id="1490" MUR="1.0"  MUF="1.0"  PDF="332106" > PDF=332100 MemberID=6 </weight>
<weight id="1491" MUR="1.0"  MUF="1.0"  PDF="332107" > PDF=332100 MemberID=7 </weight>
<weight id="1492" MUR="1.0"  MUF="1.0"  PDF="332108" > PDF=332100 MemberID=8 </weight>
<weight id="1493" MUR="1.0"  MUF="1.0"  PDF="332109" > PDF=332100 MemberID=9 </weight>
<weight id="1494" MUR="1.0"  MUF="1.0"  PDF="332110" > PDF=332100 MemberID=10 </weight>
<weight id="1495" MUR="1.0"  MUF="1.0"  PDF="332111" > PDF=332100 MemberID=11 </weight>
<weight id="1496" MUR="1.0"  MUF="1.0"  PDF="332112" > PDF=332100 MemberID=12 </weight>
<weight id="1497" MUR="1.0"  MUF="1.0"  PDF="332113" > PDF=332100 MemberID=13 </weight>
<weight id="1498" MUR="1.0"  MUF="1.0"  PDF="332114" > PDF=332100 MemberID=14 </weight>
<weight id="1499" MUR="1.0"  MUF="1.0"  PDF="332115" > PDF=332100 MemberID=15 </weight>
<weight id="1500" MUR="1.0"  MUF="1.0"  PDF="332116" > PDF=332100 MemberID=16 </weight>
<weight id="1501" MUR="1.0"  MUF="1.0"  PDF="332117" > PDF=332100 MemberID=17 </weight>
<weight id="1502" MUR="1.0"  MUF="1.0"  PDF="332118" > PDF=332100 MemberID=18 </weight>
<weight id="1503" MUR="1.0"  MUF="1.0"  PDF="332119" > PDF=332100 MemberID=19 </weight>
<weight id="1504" MUR="1.0"  MUF="1.0"  PDF="332120" > PDF=332100 MemberID=20 </weight>
<weight id="1505" MUR="1.0"  MUF="1.0"  PDF="332121" > PDF=332100 MemberID=21 </weight>
<weight id="1506" MUR="1.0"  MUF="1.0"  PDF="332122" > PDF=332100 MemberID=22 </weight>
<weight id="1507" MUR="1.0"  MUF="1.0"  PDF="332123" > PDF=332100 MemberID=23 </weight>
<weight id="1508" MUR="1.0"  MUF="1.0"  PDF="332124" > PDF=332100 MemberID=24 </weight>
<weight id="1509" MUR="1.0"  MUF="1.0"  PDF="332125" > PDF=332100 MemberID=25 </weight>
<weight id="1510" MUR="1.0"  MUF="1.0"  PDF="332126" > PDF=332100 MemberID=26 </weight>
<weight id="1511" MUR="1.0"  MUF="1.0"  PDF="332127" > PDF=332100 MemberID=27 </weight>
<weight id="1512" MUR="1.0"  MUF="1.0"  PDF="332128" > PDF=332100 MemberID=28 </weight>
<weight id="1513" MUR="1.0"  MUF="1.0"  PDF="332129" > PDF=332100 MemberID=29 </weight>
<weight id="1514" MUR="1.0"  MUF="1.0"  PDF="332130" > PDF=332100 MemberID=30 </weight>
<weight id="1515" MUR="1.0"  MUF="1.0"  PDF="332131" > PDF=332100 MemberID=31 </weight>
<weight id="1516" MUR="1.0"  MUF="1.0"  PDF="332132" > PDF=332100 MemberID=32 </weight>
<weight id="1517" MUR="1.0"  MUF="1.0"  PDF="332133" > PDF=332100 MemberID=33 </weight>
<weight id="1518" MUR="1.0"  MUF="1.0"  PDF="332134" > PDF=332100 MemberID=34 </weight>
<weight id="1519" MUR="1.0"  MUF="1.0"  PDF="332135" > PDF=332100 MemberID=35 </weight>
<weight id="1520" MUR="1.0"  MUF="1.0"  PDF="332136" > PDF=332100 MemberID=36 </weight>
<weight id="1521" MUR="1.0"  MUF="1.0"  PDF="332137" > PDF=332100 MemberID=37 </weight>
<weight id="1522" MUR="1.0"  MUF="1.0"  PDF="332138" > PDF=332100 MemberID=38 </weight>
<weight id="1523" MUR="1.0"  MUF="1.0"  PDF="332139" > PDF=332100 MemberID=39 </weight>
<weight id="1524" MUR="1.0"  MUF="1.0"  PDF="332140" > PDF=332100 MemberID=40 </weight>
<weight id="1525" MUR="1.0"  MUF="1.0"  PDF="332141" > PDF=332100 MemberID=41 </weight>
<weight id="1526" MUR="1.0"  MUF="1.0"  PDF="332142" > PDF=332100 MemberID=42 </weight>
<weight id="1527" MUR="1.0"  MUF="1.0"  PDF="332143" > PDF=332100 MemberID=43 </weight>
<weight id="1528" MUR="1.0"  MUF="1.0"  PDF="332144" > PDF=332100 MemberID=44 </weight>
<weight id="1529" MUR="1.0"  MUF="1.0"  PDF="332145" > PDF=332100 MemberID=45 </weight>
<weight id="1530" MUR="1.0"  MUF="1.0"  PDF="332146" > PDF=332100 MemberID=46 </weight>
<weight id="1531" MUR="1.0"  MUF="1.0"  PDF="332147" > PDF=332100 MemberID=47 </weight>
<weight id="1532" MUR="1.0"  MUF="1.0"  PDF="332148" > PDF=332100 MemberID=48 </weight>
<weight id="1533" MUR="1.0"  MUF="1.0"  PDF="332149" > PDF=332100 MemberID=49 </weight>
<weight id="1534" MUR="1.0"  MUF="1.0"  PDF="332150" > PDF=332100 MemberID=50 </weight>
<weight id="1535" MUR="1.0"  MUF="1.0"  PDF="332151" > PDF=332100 MemberID=51 </weight>
<weight id="1536" MUR="1.0"  MUF="1.0"  PDF="332152" > PDF=332100 MemberID=52 </weight>
<weight id="1537" MUR="1.0"  MUF="1.0"  PDF="332153" > PDF=332100 MemberID=53 </weight>
<weight id="1538" MUR="1.0"  MUF="1.0"  PDF="332154" > PDF=332100 MemberID=54 </weight>
<weight id="1539" MUR="1.0"  MUF="1.0"  PDF="332155" > PDF=332100 MemberID=55 </weight>
<weight id="1540" MUR="1.0"  MUF="1.0"  PDF="332156" > PDF=332100 MemberID=56 </weight>
<weight id="1541" MUR="1.0"  MUF="1.0"  PDF="332157" > PDF=332100 MemberID=57 </weight>
<weight id="1542" MUR="1.0"  MUF="1.0"  PDF="332158" > PDF=332100 MemberID=58 </weight>
<weight id="1543" MUR="1.0"  MUF="1.0"  PDF="332159" > PDF=332100 MemberID=59 </weight>
<weight id="1544" MUR="1.0"  MUF="1.0"  PDF="332160" > PDF=332100 MemberID=60 </weight>
<weight id="1545" MUR="1.0"  MUF="1.0"  PDF="332161" > PDF=332100 MemberID=61 </weight>
<weight id="1546" MUR="1.0"  MUF="1.0"  PDF="332162" > PDF=332100 MemberID=62 </weight>
<weight id="1547" MUR="1.0"  MUF="1.0"  PDF="332163" > PDF=332100 MemberID=63 </weight>
<weight id="1548" MUR="1.0"  MUF="1.0"  PDF="332164" > PDF=332100 MemberID=64 </weight>
<weight id="1549" MUR="1.0"  MUF="1.0"  PDF="332165" > PDF=332100 MemberID=65 </weight>
<weight id="1550" MUR="1.0"  MUF="1.0"  PDF="332166" > PDF=332100 MemberID=66 </weight>
<weight id="1551" MUR="1.0"  MUF="1.0"  PDF="332167" > PDF=332100 MemberID=67 </weight>
<weight id="1552" MUR="1.0"  MUF="1.0"  PDF="332168" > PDF=332100 MemberID=68 </weight>
<weight id="1553" MUR="1.0"  MUF="1.0"  PDF="332169" > PDF=332100 MemberID=69 </weight>
<weight id="1554" MUR="1.0"  MUF="1.0"  PDF="332170" > PDF=332100 MemberID=70 </weight>
<weight id="1555" MUR="1.0"  MUF="1.0"  PDF="332171" > PDF=332100 MemberID=71 </weight>
<weight id="1556" MUR="1.0"  MUF="1.0"  PDF="332172" > PDF=332100 MemberID=72 </weight>
<weight id="1557" MUR="1.0"  MUF="1.0"  PDF="332173" > PDF=332100 MemberID=73 </weight>
<weight id="1558" MUR="1.0"  MUF="1.0"  PDF="332174" > PDF=332100 MemberID=74 </weight>
<weight id="1559" MUR="1.0"  MUF="1.0"  PDF="332175" > PDF=332100 MemberID=75 </weight>
<weight id="1560" MUR="1.0"  MUF="1.0"  PDF="332176" > PDF=332100 MemberID=76 </weight>
<weight id="1561" MUR="1.0"  MUF="1.0"  PDF="332177" > PDF=332100 MemberID=77 </weight>
<weight id="1562" MUR="1.0"  MUF="1.0"  PDF="332178" > PDF=332100 MemberID=78 </weight>
<weight id="1563" MUR="1.0"  MUF="1.0"  PDF="332179" > PDF=332100 MemberID=79 </weight>
<weight id="1564" MUR="1.0"  MUF="1.0"  PDF="332180" > PDF=332100 MemberID=80 </weight>
<weight id="1565" MUR="1.0"  MUF="1.0"  PDF="332181" > PDF=332100 MemberID=81 </weight>
<weight id="1566" MUR="1.0"  MUF="1.0"  PDF="332182" > PDF=332100 MemberID=82 </weight>
<weight id="1567" MUR="1.0"  MUF="1.0"  PDF="332183" > PDF=332100 MemberID=83 </weight>
<weight id="1568" MUR="1.0"  MUF="1.0"  PDF="332184" > PDF=332100 MemberID=84 </weight>
<weight id="1569" MUR="1.0"  MUF="1.0"  PDF="332185" > PDF=332100 MemberID=85 </weight>
<weight id="1570" MUR="1.0"  MUF="1.0"  PDF="332186" > PDF=332100 MemberID=86 </weight>
<weight id="1571" MUR="1.0"  MUF="1.0"  PDF="332187" > PDF=332100 MemberID=87 </weight>
<weight id="1572" MUR="1.0"  MUF="1.0"  PDF="332188" > PDF=332100 MemberID=88 </weight>
<weight id="1573" MUR="1.0"  MUF="1.0"  PDF="332189" > PDF=332100 MemberID=89 </weight>
<weight id="1574" MUR="1.0"  MUF="1.0"  PDF="332190" > PDF=332100 MemberID=90 </weight>
<weight id="1575" MUR="1.0"  MUF="1.0"  PDF="332191" > PDF=332100 MemberID=91 </weight>
<weight id="1576" MUR="1.0"  MUF="1.0"  PDF="332192" > PDF=332100 MemberID=92 </weight>
<weight id="1577" MUR="1.0"  MUF="1.0"  PDF="332193" > PDF=332100 MemberID=93 </weight>
<weight id="1578" MUR="1.0"  MUF="1.0"  PDF="332194" > PDF=332100 MemberID=94 </weight>
<weight id="1579" MUR="1.0"  MUF="1.0"  PDF="332195" > PDF=332100 MemberID=95 </weight>
<weight id="1580" MUR="1.0"  MUF="1.0"  PDF="332196" > PDF=332100 MemberID=96 </weight>
<weight id="1581" MUR="1.0"  MUF="1.0"  PDF="332197" > PDF=332100 MemberID=97 </weight>
<weight id="1582" MUR="1.0"  MUF="1.0"  PDF="332198" > PDF=332100 MemberID=98 </weight>
<weight id="1583" MUR="1.0"  MUF="1.0"  PDF="332199" > PDF=332100 MemberID=99 </weight>
<weight id="1584" MUR="1.0"  MUF="1.0"  PDF="332200" > PDF=332100 MemberID=100 </weight>
</weightgroup> # PDFSET to PDF
<weight id="1585" MUR="1.0"  MUF="1.0"  PDF="332300" > PDF=332300 MemberID=0 </weight>
<weight id="1586" MUR="1.0"  MUF="1.0"  PDF="332500" > PDF=332500 MemberID=0 </weight>
<weight id="1587" MUR="1.0"  MUF="1.0"  PDF="332700" > PDF=332700 MemberID=0 </weight>
<weight id="1588" MUR="1.0"  MUF="1.0"  PDF="332900" > PDF=332900 MemberID=0 </weight>
<weight id="1589" MUR="1.0"  MUF="1.0"  PDF="333100" > PDF=333100 MemberID=0 </weight>
<weight id="1590" MUR="1.0"  MUF="1.0"  PDF="333300" > PDF=333300 MemberID=0 </weight>
<weight id="1591" MUR="1.0"  MUF="1.0"  PDF="333500" > PDF=333500 MemberID=0 </weight>
<weight id="1592" MUR="1.0"  MUF="1.0"  PDF="333700" > PDF=333700 MemberID=0 </weight>
<weightgroup name="CT18NNLO" combine="hessian"> # 14000: CT18NNLO, 3-loop PDF evolution with HOPPET and HOPPET alphas_s running solution. This set has 59 member PDFs. mem=0 --.gt. central value; mem=1-58 --.gt. eigenvector sets 90%
<weight id="1593" MUR="1.0"  MUF="1.0"  PDF="14000" > PDF=14000 MemberID=0 </weight>
<weight id="1594" MUR="1.0"  MUF="1.0"  PDF="14001" > PDF=14000 MemberID=1 </weight>
<weight id="1595" MUR="1.0"  MUF="1.0"  PDF="14002" > PDF=14000 MemberID=2 </weight>
<weight id="1596" MUR="1.0"  MUF="1.0"  PDF="14003" > PDF=14000 MemberID=3 </weight>
<weight id="1597" MUR="1.0"  MUF="1.0"  PDF="14004" > PDF=14000 MemberID=4 </weight>
<weight id="1598" MUR="1.0"  MUF="1.0"  PDF="14005" > PDF=14000 MemberID=5 </weight>
<weight id="1599" MUR="1.0"  MUF="1.0"  PDF="14006" > PDF=14000 MemberID=6 </weight>
<weight id="1600" MUR="1.0"  MUF="1.0"  PDF="14007" > PDF=14000 MemberID=7 </weight>
<weight id="1601" MUR="1.0"  MUF="1.0"  PDF="14008" > PDF=14000 MemberID=8 </weight>
<weight id="1602" MUR="1.0"  MUF="1.0"  PDF="14009" > PDF=14000 MemberID=9 </weight>
<weight id="1603" MUR="1.0"  MUF="1.0"  PDF="14010" > PDF=14000 MemberID=10 </weight>
<weight id="1604" MUR="1.0"  MUF="1.0"  PDF="14011" > PDF=14000 MemberID=11 </weight>
<weight id="1605" MUR="1.0"  MUF="1.0"  PDF="14012" > PDF=14000 MemberID=12 </weight>
<weight id="1606" MUR="1.0"  MUF="1.0"  PDF="14013" > PDF=14000 MemberID=13 </weight>
<weight id="1607" MUR="1.0"  MUF="1.0"  PDF="14014" > PDF=14000 MemberID=14 </weight>
<weight id="1608" MUR="1.0"  MUF="1.0"  PDF="14015" > PDF=14000 MemberID=15 </weight>
<weight id="1609" MUR="1.0"  MUF="1.0"  PDF="14016" > PDF=14000 MemberID=16 </weight>
<weight id="1610" MUR="1.0"  MUF="1.0"  PDF="14017" > PDF=14000 MemberID=17 </weight>
<weight id="1611" MUR="1.0"  MUF="1.0"  PDF="14018" > PDF=14000 MemberID=18 </weight>
<weight id="1612" MUR="1.0"  MUF="1.0"  PDF="14019" > PDF=14000 MemberID=19 </weight>
<weight id="1613" MUR="1.0"  MUF="1.0"  PDF="14020" > PDF=14000 MemberID=20 </weight>
<weight id="1614" MUR="1.0"  MUF="1.0"  PDF="14021" > PDF=14000 MemberID=21 </weight>
<weight id="1615" MUR="1.0"  MUF="1.0"  PDF="14022" > PDF=14000 MemberID=22 </weight>
<weight id="1616" MUR="1.0"  MUF="1.0"  PDF="14023" > PDF=14000 MemberID=23 </weight>
<weight id="1617" MUR="1.0"  MUF="1.0"  PDF="14024" > PDF=14000 MemberID=24 </weight>
<weight id="1618" MUR="1.0"  MUF="1.0"  PDF="14025" > PDF=14000 MemberID=25 </weight>
<weight id="1619" MUR="1.0"  MUF="1.0"  PDF="14026" > PDF=14000 MemberID=26 </weight>
<weight id="1620" MUR="1.0"  MUF="1.0"  PDF="14027" > PDF=14000 MemberID=27 </weight>
<weight id="1621" MUR="1.0"  MUF="1.0"  PDF="14028" > PDF=14000 MemberID=28 </weight>
<weight id="1622" MUR="1.0"  MUF="1.0"  PDF="14029" > PDF=14000 MemberID=29 </weight>
<weight id="1623" MUR="1.0"  MUF="1.0"  PDF="14030" > PDF=14000 MemberID=30 </weight>
<weight id="1624" MUR="1.0"  MUF="1.0"  PDF="14031" > PDF=14000 MemberID=31 </weight>
<weight id="1625" MUR="1.0"  MUF="1.0"  PDF="14032" > PDF=14000 MemberID=32 </weight>
<weight id="1626" MUR="1.0"  MUF="1.0"  PDF="14033" > PDF=14000 MemberID=33 </weight>
<weight id="1627" MUR="1.0"  MUF="1.0"  PDF="14034" > PDF=14000 MemberID=34 </weight>
<weight id="1628" MUR="1.0"  MUF="1.0"  PDF="14035" > PDF=14000 MemberID=35 </weight>
<weight id="1629" MUR="1.0"  MUF="1.0"  PDF="14036" > PDF=14000 MemberID=36 </weight>
<weight id="1630" MUR="1.0"  MUF="1.0"  PDF="14037" > PDF=14000 MemberID=37 </weight>
<weight id="1631" MUR="1.0"  MUF="1.0"  PDF="14038" > PDF=14000 MemberID=38 </weight>
<weight id="1632" MUR="1.0"  MUF="1.0"  PDF="14039" > PDF=14000 MemberID=39 </weight>
<weight id="1633" MUR="1.0"  MUF="1.0"  PDF="14040" > PDF=14000 MemberID=40 </weight>
<weight id="1634" MUR="1.0"  MUF="1.0"  PDF="14041" > PDF=14000 MemberID=41 </weight>
<weight id="1635" MUR="1.0"  MUF="1.0"  PDF="14042" > PDF=14000 MemberID=42 </weight>
<weight id="1636" MUR="1.0"  MUF="1.0"  PDF="14043" > PDF=14000 MemberID=43 </weight>
<weight id="1637" MUR="1.0"  MUF="1.0"  PDF="14044" > PDF=14000 MemberID=44 </weight>
<weight id="1638" MUR="1.0"  MUF="1.0"  PDF="14045" > PDF=14000 MemberID=45 </weight>
<weight id="1639" MUR="1.0"  MUF="1.0"  PDF="14046" > PDF=14000 MemberID=46 </weight>
<weight id="1640" MUR="1.0"  MUF="1.0"  PDF="14047" > PDF=14000 MemberID=47 </weight>
<weight id="1641" MUR="1.0"  MUF="1.0"  PDF="14048" > PDF=14000 MemberID=48 </weight>
<weight id="1642" MUR="1.0"  MUF="1.0"  PDF="14049" > PDF=14000 MemberID=49 </weight>
<weight id="1643" MUR="1.0"  MUF="1.0"  PDF="14050" > PDF=14000 MemberID=50 </weight>
<weight id="1644" MUR="1.0"  MUF="1.0"  PDF="14051" > PDF=14000 MemberID=51 </weight>
<weight id="1645" MUR="1.0"  MUF="1.0"  PDF="14052" > PDF=14000 MemberID=52 </weight>
<weight id="1646" MUR="1.0"  MUF="1.0"  PDF="14053" > PDF=14000 MemberID=53 </weight>
<weight id="1647" MUR="1.0"  MUF="1.0"  PDF="14054" > PDF=14000 MemberID=54 </weight>
<weight id="1648" MUR="1.0"  MUF="1.0"  PDF="14055" > PDF=14000 MemberID=55 </weight>
<weight id="1649" MUR="1.0"  MUF="1.0"  PDF="14056" > PDF=14000 MemberID=56 </weight>
<weight id="1650" MUR="1.0"  MUF="1.0"  PDF="14057" > PDF=14000 MemberID=57 </weight>
<weight id="1651" MUR="1.0"  MUF="1.0"  PDF="14058" > PDF=14000 MemberID=58 </weight>
</weightgroup> # PDFSET to PDF
<weight id="1652" MUR="1.0"  MUF="1.0"  PDF="14066" > PDF=14066 MemberID=0 </weight>
<weight id="1653" MUR="1.0"  MUF="1.0"  PDF="14067" > PDF=14067 MemberID=0 </weight>
<weight id="1654" MUR="1.0"  MUF="1.0"  PDF="14069" > PDF=14069 MemberID=0 </weight>
<weight id="1655" MUR="1.0"  MUF="1.0"  PDF="14070" > PDF=14070 MemberID=0 </weight>
<weightgroup name="CT18ZNNLO" combine="hessian"> # 14100: CT18ZNNLO, 3-loop PDF evolution with HOPPET and HOPPET alphas_s running solution. This set has 59 member PDFs. mem=0 --.gt. central value; mem=1-58 --.gt. eigenvector sets 90%
<weight id="1656" MUR="1.0"  MUF="1.0"  PDF="14100" > PDF=14100 MemberID=0 </weight>
<weight id="1657" MUR="1.0"  MUF="1.0"  PDF="14101" > PDF=14100 MemberID=1 </weight>
<weight id="1658" MUR="1.0"  MUF="1.0"  PDF="14102" > PDF=14100 MemberID=2 </weight>
<weight id="1659" MUR="1.0"  MUF="1.0"  PDF="14103" > PDF=14100 MemberID=3 </weight>
<weight id="1660" MUR="1.0"  MUF="1.0"  PDF="14104" > PDF=14100 MemberID=4 </weight>
<weight id="1661" MUR="1.0"  MUF="1.0"  PDF="14105" > PDF=14100 MemberID=5 </weight>
<weight id="1662" MUR="1.0"  MUF="1.0"  PDF="14106" > PDF=14100 MemberID=6 </weight>
<weight id="1663" MUR="1.0"  MUF="1.0"  PDF="14107" > PDF=14100 MemberID=7 </weight>
<weight id="1664" MUR="1.0"  MUF="1.0"  PDF="14108" > PDF=14100 MemberID=8 </weight>
<weight id="1665" MUR="1.0"  MUF="1.0"  PDF="14109" > PDF=14100 MemberID=9 </weight>
<weight id="1666" MUR="1.0"  MUF="1.0"  PDF="14110" > PDF=14100 MemberID=10 </weight>
<weight id="1667" MUR="1.0"  MUF="1.0"  PDF="14111" > PDF=14100 MemberID=11 </weight>
<weight id="1668" MUR="1.0"  MUF="1.0"  PDF="14112" > PDF=14100 MemberID=12 </weight>
<weight id="1669" MUR="1.0"  MUF="1.0"  PDF="14113" > PDF=14100 MemberID=13 </weight>
<weight id="1670" MUR="1.0"  MUF="1.0"  PDF="14114" > PDF=14100 MemberID=14 </weight>
<weight id="1671" MUR="1.0"  MUF="1.0"  PDF="14115" > PDF=14100 MemberID=15 </weight>
<weight id="1672" MUR="1.0"  MUF="1.0"  PDF="14116" > PDF=14100 MemberID=16 </weight>
<weight id="1673" MUR="1.0"  MUF="1.0"  PDF="14117" > PDF=14100 MemberID=17 </weight>
<weight id="1674" MUR="1.0"  MUF="1.0"  PDF="14118" > PDF=14100 MemberID=18 </weight>
<weight id="1675" MUR="1.0"  MUF="1.0"  PDF="14119" > PDF=14100 MemberID=19 </weight>
<weight id="1676" MUR="1.0"  MUF="1.0"  PDF="14120" > PDF=14100 MemberID=20 </weight>
<weight id="1677" MUR="1.0"  MUF="1.0"  PDF="14121" > PDF=14100 MemberID=21 </weight>
<weight id="1678" MUR="1.0"  MUF="1.0"  PDF="14122" > PDF=14100 MemberID=22 </weight>
<weight id="1679" MUR="1.0"  MUF="1.0"  PDF="14123" > PDF=14100 MemberID=23 </weight>
<weight id="1680" MUR="1.0"  MUF="1.0"  PDF="14124" > PDF=14100 MemberID=24 </weight>
<weight id="1681" MUR="1.0"  MUF="1.0"  PDF="14125" > PDF=14100 MemberID=25 </weight>
<weight id="1682" MUR="1.0"  MUF="1.0"  PDF="14126" > PDF=14100 MemberID=26 </weight>
<weight id="1683" MUR="1.0"  MUF="1.0"  PDF="14127" > PDF=14100 MemberID=27 </weight>
<weight id="1684" MUR="1.0"  MUF="1.0"  PDF="14128" > PDF=14100 MemberID=28 </weight>
<weight id="1685" MUR="1.0"  MUF="1.0"  PDF="14129" > PDF=14100 MemberID=29 </weight>
<weight id="1686" MUR="1.0"  MUF="1.0"  PDF="14130" > PDF=14100 MemberID=30 </weight>
<weight id="1687" MUR="1.0"  MUF="1.0"  PDF="14131" > PDF=14100 MemberID=31 </weight>
<weight id="1688" MUR="1.0"  MUF="1.0"  PDF="14132" > PDF=14100 MemberID=32 </weight>
<weight id="1689" MUR="1.0"  MUF="1.0"  PDF="14133" > PDF=14100 MemberID=33 </weight>
<weight id="1690" MUR="1.0"  MUF="1.0"  PDF="14134" > PDF=14100 MemberID=34 </weight>
<weight id="1691" MUR="1.0"  MUF="1.0"  PDF="14135" > PDF=14100 MemberID=35 </weight>
<weight id="1692" MUR="1.0"  MUF="1.0"  PDF="14136" > PDF=14100 MemberID=36 </weight>
<weight id="1693" MUR="1.0"  MUF="1.0"  PDF="14137" > PDF=14100 MemberID=37 </weight>
<weight id="1694" MUR="1.0"  MUF="1.0"  PDF="14138" > PDF=14100 MemberID=38 </weight>
<weight id="1695" MUR="1.0"  MUF="1.0"  PDF="14139" > PDF=14100 MemberID=39 </weight>
<weight id="1696" MUR="1.0"  MUF="1.0"  PDF="14140" > PDF=14100 MemberID=40 </weight>
<weight id="1697" MUR="1.0"  MUF="1.0"  PDF="14141" > PDF=14100 MemberID=41 </weight>
<weight id="1698" MUR="1.0"  MUF="1.0"  PDF="14142" > PDF=14100 MemberID=42 </weight>
<weight id="1699" MUR="1.0"  MUF="1.0"  PDF="14143" > PDF=14100 MemberID=43 </weight>
<weight id="1700" MUR="1.0"  MUF="1.0"  PDF="14144" > PDF=14100 MemberID=44 </weight>
<weight id="1701" MUR="1.0"  MUF="1.0"  PDF="14145" > PDF=14100 MemberID=45 </weight>
<weight id="1702" MUR="1.0"  MUF="1.0"  PDF="14146" > PDF=14100 MemberID=46 </weight>
<weight id="1703" MUR="1.0"  MUF="1.0"  PDF="14147" > PDF=14100 MemberID=47 </weight>
<weight id="1704" MUR="1.0"  MUF="1.0"  PDF="14148" > PDF=14100 MemberID=48 </weight>
<weight id="1705" MUR="1.0"  MUF="1.0"  PDF="14149" > PDF=14100 MemberID=49 </weight>
<weight id="1706" MUR="1.0"  MUF="1.0"  PDF="14150" > PDF=14100 MemberID=50 </weight>
<weight id="1707" MUR="1.0"  MUF="1.0"  PDF="14151" > PDF=14100 MemberID=51 </weight>
<weight id="1708" MUR="1.0"  MUF="1.0"  PDF="14152" > PDF=14100 MemberID=52 </weight>
<weight id="1709" MUR="1.0"  MUF="1.0"  PDF="14153" > PDF=14100 MemberID=53 </weight>
<weight id="1710" MUR="1.0"  MUF="1.0"  PDF="14154" > PDF=14100 MemberID=54 </weight>
<weight id="1711" MUR="1.0"  MUF="1.0"  PDF="14155" > PDF=14100 MemberID=55 </weight>
<weight id="1712" MUR="1.0"  MUF="1.0"  PDF="14156" > PDF=14100 MemberID=56 </weight>
<weight id="1713" MUR="1.0"  MUF="1.0"  PDF="14157" > PDF=14100 MemberID=57 </weight>
<weight id="1714" MUR="1.0"  MUF="1.0"  PDF="14158" > PDF=14100 MemberID=58 </weight>
</weightgroup> # PDFSET to PDF
<weight id="1715" MUR="1.0"  MUF="1.0"  PDF="14200" > PDF=14200 MemberID=0 </weight>
<weight id="1716" MUR="1.0"  MUF="1.0"  PDF="14300" > PDF=14300 MemberID=0 </weight>
<weightgroup name="MSHT20nnlo_as118" combine="hessian"> # 27400: "MSHT 2020 NNLO (68% C.L.gt.). mem=0 ; central value; mem=1-64 ; 32 eigenvector sets (+/- directions). See Section 5.3.2 of arXiv:2012.04684 for error calculation. Web address: www.hep.ucl.ac.uk/msht"
<weight id="1717" MUR="1.0"  MUF="1.0"  PDF="27400" > PDF=27400 MemberID=0 </weight>
<weight id="1718" MUR="1.0"  MUF="1.0"  PDF="27401" > PDF=27400 MemberID=1 </weight>
<weight id="1719" MUR="1.0"  MUF="1.0"  PDF="27402" > PDF=27400 MemberID=2 </weight>
<weight id="1720" MUR="1.0"  MUF="1.0"  PDF="27403" > PDF=27400 MemberID=3 </weight>
<weight id="1721" MUR="1.0"  MUF="1.0"  PDF="27404" > PDF=27400 MemberID=4 </weight>
<weight id="1722" MUR="1.0"  MUF="1.0"  PDF="27405" > PDF=27400 MemberID=5 </weight>
<weight id="1723" MUR="1.0"  MUF="1.0"  PDF="27406" > PDF=27400 MemberID=6 </weight>
<weight id="1724" MUR="1.0"  MUF="1.0"  PDF="27407" > PDF=27400 MemberID=7 </weight>
<weight id="1725" MUR="1.0"  MUF="1.0"  PDF="27408" > PDF=27400 MemberID=8 </weight>
<weight id="1726" MUR="1.0"  MUF="1.0"  PDF="27409" > PDF=27400 MemberID=9 </weight>
<weight id="1727" MUR="1.0"  MUF="1.0"  PDF="27410" > PDF=27400 MemberID=10 </weight>
<weight id="1728" MUR="1.0"  MUF="1.0"  PDF="27411" > PDF=27400 MemberID=11 </weight>
<weight id="1729" MUR="1.0"  MUF="1.0"  PDF="27412" > PDF=27400 MemberID=12 </weight>
<weight id="1730" MUR="1.0"  MUF="1.0"  PDF="27413" > PDF=27400 MemberID=13 </weight>
<weight id="1731" MUR="1.0"  MUF="1.0"  PDF="27414" > PDF=27400 MemberID=14 </weight>
<weight id="1732" MUR="1.0"  MUF="1.0"  PDF="27415" > PDF=27400 MemberID=15 </weight>
<weight id="1733" MUR="1.0"  MUF="1.0"  PDF="27416" > PDF=27400 MemberID=16 </weight>
<weight id="1734" MUR="1.0"  MUF="1.0"  PDF="27417" > PDF=27400 MemberID=17 </weight>
<weight id="1735" MUR="1.0"  MUF="1.0"  PDF="27418" > PDF=27400 MemberID=18 </weight>
<weight id="1736" MUR="1.0"  MUF="1.0"  PDF="27419" > PDF=27400 MemberID=19 </weight>
<weight id="1737" MUR="1.0"  MUF="1.0"  PDF="27420" > PDF=27400 MemberID=20 </weight>
<weight id="1738" MUR="1.0"  MUF="1.0"  PDF="27421" > PDF=27400 MemberID=21 </weight>
<weight id="1739" MUR="1.0"  MUF="1.0"  PDF="27422" > PDF=27400 MemberID=22 </weight>
<weight id="1740" MUR="1.0"  MUF="1.0"  PDF="27423" > PDF=27400 MemberID=23 </weight>
<weight id="1741" MUR="1.0"  MUF="1.0"  PDF="27424" > PDF=27400 MemberID=24 </weight>
<weight id="1742" MUR="1.0"  MUF="1.0"  PDF="27425" > PDF=27400 MemberID=25 </weight>
<weight id="1743" MUR="1.0"  MUF="1.0"  PDF="27426" > PDF=27400 MemberID=26 </weight>
<weight id="1744" MUR="1.0"  MUF="1.0"  PDF="27427" > PDF=27400 MemberID=27 </weight>
<weight id="1745" MUR="1.0"  MUF="1.0"  PDF="27428" > PDF=27400 MemberID=28 </weight>
<weight id="1746" MUR="1.0"  MUF="1.0"  PDF="27429" > PDF=27400 MemberID=29 </weight>
<weight id="1747" MUR="1.0"  MUF="1.0"  PDF="27430" > PDF=27400 MemberID=30 </weight>
<weight id="1748" MUR="1.0"  MUF="1.0"  PDF="27431" > PDF=27400 MemberID=31 </weight>
<weight id="1749" MUR="1.0"  MUF="1.0"  PDF="27432" > PDF=27400 MemberID=32 </weight>
<weight id="1750" MUR="1.0"  MUF="1.0"  PDF="27433" > PDF=27400 MemberID=33 </weight>
<weight id="1751" MUR="1.0"  MUF="1.0"  PDF="27434" > PDF=27400 MemberID=34 </weight>
<weight id="1752" MUR="1.0"  MUF="1.0"  PDF="27435" > PDF=27400 MemberID=35 </weight>
<weight id="1753" MUR="1.0"  MUF="1.0"  PDF="27436" > PDF=27400 MemberID=36 </weight>
<weight id="1754" MUR="1.0"  MUF="1.0"  PDF="27437" > PDF=27400 MemberID=37 </weight>
<weight id="1755" MUR="1.0"  MUF="1.0"  PDF="27438" > PDF=27400 MemberID=38 </weight>
<weight id="1756" MUR="1.0"  MUF="1.0"  PDF="27439" > PDF=27400 MemberID=39 </weight>
<weight id="1757" MUR="1.0"  MUF="1.0"  PDF="27440" > PDF=27400 MemberID=40 </weight>
<weight id="1758" MUR="1.0"  MUF="1.0"  PDF="27441" > PDF=27400 MemberID=41 </weight>
<weight id="1759" MUR="1.0"  MUF="1.0"  PDF="27442" > PDF=27400 MemberID=42 </weight>
<weight id="1760" MUR="1.0"  MUF="1.0"  PDF="27443" > PDF=27400 MemberID=43 </weight>
<weight id="1761" MUR="1.0"  MUF="1.0"  PDF="27444" > PDF=27400 MemberID=44 </weight>
<weight id="1762" MUR="1.0"  MUF="1.0"  PDF="27445" > PDF=27400 MemberID=45 </weight>
<weight id="1763" MUR="1.0"  MUF="1.0"  PDF="27446" > PDF=27400 MemberID=46 </weight>
<weight id="1764" MUR="1.0"  MUF="1.0"  PDF="27447" > PDF=27400 MemberID=47 </weight>
<weight id="1765" MUR="1.0"  MUF="1.0"  PDF="27448" > PDF=27400 MemberID=48 </weight>
<weight id="1766" MUR="1.0"  MUF="1.0"  PDF="27449" > PDF=27400 MemberID=49 </weight>
<weight id="1767" MUR="1.0"  MUF="1.0"  PDF="27450" > PDF=27400 MemberID=50 </weight>
<weight id="1768" MUR="1.0"  MUF="1.0"  PDF="27451" > PDF=27400 MemberID=51 </weight>
<weight id="1769" MUR="1.0"  MUF="1.0"  PDF="27452" > PDF=27400 MemberID=52 </weight>
<weight id="1770" MUR="1.0"  MUF="1.0"  PDF="27453" > PDF=27400 MemberID=53 </weight>
<weight id="1771" MUR="1.0"  MUF="1.0"  PDF="27454" > PDF=27400 MemberID=54 </weight>
<weight id="1772" MUR="1.0"  MUF="1.0"  PDF="27455" > PDF=27400 MemberID=55 </weight>
<weight id="1773" MUR="1.0"  MUF="1.0"  PDF="27456" > PDF=27400 MemberID=56 </weight>
<weight id="1774" MUR="1.0"  MUF="1.0"  PDF="27457" > PDF=27400 MemberID=57 </weight>
<weight id="1775" MUR="1.0"  MUF="1.0"  PDF="27458" > PDF=27400 MemberID=58 </weight>
<weight id="1776" MUR="1.0"  MUF="1.0"  PDF="27459" > PDF=27400 MemberID=59 </weight>
<weight id="1777" MUR="1.0"  MUF="1.0"  PDF="27460" > PDF=27400 MemberID=60 </weight>
<weight id="1778" MUR="1.0"  MUF="1.0"  PDF="27461" > PDF=27400 MemberID=61 </weight>
<weight id="1779" MUR="1.0"  MUF="1.0"  PDF="27462" > PDF=27400 MemberID=62 </weight>
<weight id="1780" MUR="1.0"  MUF="1.0"  PDF="27463" > PDF=27400 MemberID=63 </weight>
<weight id="1781" MUR="1.0"  MUF="1.0"  PDF="27464" > PDF=27400 MemberID=64 </weight>
</weightgroup> # PDFSET to PDF
<weight id="1782" MUR="1.0"  MUF="1.0"  PDF="27500" > PDF=27500 MemberID=0 </weight>
<weight id="1783" MUR="1.0"  MUF="1.0"  PDF="27550" > PDF=27550 MemberID=0 </weight>
<weightgroup name="PDF4LHC21_40_pdfas" combine="symmhessian+as"> # 93300: "The PDF4LHC21 Hessian 40 set, 3-loop QCD, alphas(MZ)=0.118, large-x positivity. 1+40 symmetric eigenvector sets at alphas(MZ)=0.118; 41 and 42: alphas(MZ)=0.117 and 0.119"
<weight id="1784" MUR="1.0"  MUF="1.0"  PDF="93300" > PDF=93300 MemberID=0 </weight>
<weight id="1785" MUR="1.0"  MUF="1.0"  PDF="93301" > PDF=93300 MemberID=1 </weight>
<weight id="1786" MUR="1.0"  MUF="1.0"  PDF="93302" > PDF=93300 MemberID=2 </weight>
<weight id="1787" MUR="1.0"  MUF="1.0"  PDF="93303" > PDF=93300 MemberID=3 </weight>
<weight id="1788" MUR="1.0"  MUF="1.0"  PDF="93304" > PDF=93300 MemberID=4 </weight>
<weight id="1789" MUR="1.0"  MUF="1.0"  PDF="93305" > PDF=93300 MemberID=5 </weight>
<weight id="1790" MUR="1.0"  MUF="1.0"  PDF="93306" > PDF=93300 MemberID=6 </weight>
<weight id="1791" MUR="1.0"  MUF="1.0"  PDF="93307" > PDF=93300 MemberID=7 </weight>
<weight id="1792" MUR="1.0"  MUF="1.0"  PDF="93308" > PDF=93300 MemberID=8 </weight>
<weight id="1793" MUR="1.0"  MUF="1.0"  PDF="93309" > PDF=93300 MemberID=9 </weight>
<weight id="1794" MUR="1.0"  MUF="1.0"  PDF="93310" > PDF=93300 MemberID=10 </weight>
<weight id="1795" MUR="1.0"  MUF="1.0"  PDF="93311" > PDF=93300 MemberID=11 </weight>
<weight id="1796" MUR="1.0"  MUF="1.0"  PDF="93312" > PDF=93300 MemberID=12 </weight>
<weight id="1797" MUR="1.0"  MUF="1.0"  PDF="93313" > PDF=93300 MemberID=13 </weight>
<weight id="1798" MUR="1.0"  MUF="1.0"  PDF="93314" > PDF=93300 MemberID=14 </weight>
<weight id="1799" MUR="1.0"  MUF="1.0"  PDF="93315" > PDF=93300 MemberID=15 </weight>
<weight id="1800" MUR="1.0"  MUF="1.0"  PDF="93316" > PDF=93300 MemberID=16 </weight>
<weight id="1801" MUR="1.0"  MUF="1.0"  PDF="93317" > PDF=93300 MemberID=17 </weight>
<weight id="1802" MUR="1.0"  MUF="1.0"  PDF="93318" > PDF=93300 MemberID=18 </weight>
<weight id="1803" MUR="1.0"  MUF="1.0"  PDF="93319" > PDF=93300 MemberID=19 </weight>
<weight id="1804" MUR="1.0"  MUF="1.0"  PDF="93320" > PDF=93300 MemberID=20 </weight>
<weight id="1805" MUR="1.0"  MUF="1.0"  PDF="93321" > PDF=93300 MemberID=21 </weight>
<weight id="1806" MUR="1.0"  MUF="1.0"  PDF="93322" > PDF=93300 MemberID=22 </weight>
<weight id="1807" MUR="1.0"  MUF="1.0"  PDF="93323" > PDF=93300 MemberID=23 </weight>
<weight id="1808" MUR="1.0"  MUF="1.0"  PDF="93324" > PDF=93300 MemberID=24 </weight>
<weight id="1809" MUR="1.0"  MUF="1.0"  PDF="93325" > PDF=93300 MemberID=25 </weight>
<weight id="1810" MUR="1.0"  MUF="1.0"  PDF="93326" > PDF=93300 MemberID=26 </weight>
<weight id="1811" MUR="1.0"  MUF="1.0"  PDF="93327" > PDF=93300 MemberID=27 </weight>
<weight id="1812" MUR="1.0"  MUF="1.0"  PDF="93328" > PDF=93300 MemberID=28 </weight>
<weight id="1813" MUR="1.0"  MUF="1.0"  PDF="93329" > PDF=93300 MemberID=29 </weight>
<weight id="1814" MUR="1.0"  MUF="1.0"  PDF="93330" > PDF=93300 MemberID=30 </weight>
<weight id="1815" MUR="1.0"  MUF="1.0"  PDF="93331" > PDF=93300 MemberID=31 </weight>
<weight id="1816" MUR="1.0"  MUF="1.0"  PDF="93332" > PDF=93300 MemberID=32 </weight>
<weight id="1817" MUR="1.0"  MUF="1.0"  PDF="93333" > PDF=93300 MemberID=33 </weight>
<weight id="1818" MUR="1.0"  MUF="1.0"  PDF="93334" > PDF=93300 MemberID=34 </weight>
<weight id="1819" MUR="1.0"  MUF="1.0"  PDF="93335" > PDF=93300 MemberID=35 </weight>
<weight id="1820" MUR="1.0"  MUF="1.0"  PDF="93336" > PDF=93300 MemberID=36 </weight>
<weight id="1821" MUR="1.0"  MUF="1.0"  PDF="93337" > PDF=93300 MemberID=37 </weight>
<weight id="1822" MUR="1.0"  MUF="1.0"  PDF="93338" > PDF=93300 MemberID=38 </weight>
<weight id="1823" MUR="1.0"  MUF="1.0"  PDF="93339" > PDF=93300 MemberID=39 </weight>
<weight id="1824" MUR="1.0"  MUF="1.0"  PDF="93340" > PDF=93300 MemberID=40 </weight>
<weight id="1825" MUR="1.0"  MUF="1.0"  PDF="93341" > PDF=93300 MemberID=41 </weight>
<weight id="1826" MUR="1.0"  MUF="1.0"  PDF="93342" > PDF=93300 MemberID=42 </weight>
</weightgroup> # PDFSET to PDFSET
<weightgroup name="HERAPDF20_NNLO_EIG" combine="hessian"> # 61200: HERAPDF20 NNLO (Q2min=3.5) fit and experimental uncertainty variations. The 28 error PDFs should be treated two by two as the up and down excursions along 14 eigenvectors, such that the symmetric error is calculated as the quadrature sum of [Sum i=1,14 of (var i+1 - var i)/2 ], or if asymmetric errors are desired according to Eqn 43 of Campbell, Huston and Stirling hep-ph/0611148. mem=0 ; central; mem=1-28 ; error eigenvectors.
<weight id="1827" MUR="1.0"  MUF="1.0"  PDF="61200" > PDF=61200 MemberID=0 </weight>
<weight id="1828" MUR="1.0"  MUF="1.0"  PDF="61201" > PDF=61200 MemberID=1 </weight>
<weight id="1829" MUR="1.0"  MUF="1.0"  PDF="61202" > PDF=61200 MemberID=2 </weight>
<weight id="1830" MUR="1.0"  MUF="1.0"  PDF="61203" > PDF=61200 MemberID=3 </weight>
<weight id="1831" MUR="1.0"  MUF="1.0"  PDF="61204" > PDF=61200 MemberID=4 </weight>
<weight id="1832" MUR="1.0"  MUF="1.0"  PDF="61205" > PDF=61200 MemberID=5 </weight>
<weight id="1833" MUR="1.0"  MUF="1.0"  PDF="61206" > PDF=61200 MemberID=6 </weight>
<weight id="1834" MUR="1.0"  MUF="1.0"  PDF="61207" > PDF=61200 MemberID=7 </weight>
<weight id="1835" MUR="1.0"  MUF="1.0"  PDF="61208" > PDF=61200 MemberID=8 </weight>
<weight id="1836" MUR="1.0"  MUF="1.0"  PDF="61209" > PDF=61200 MemberID=9 </weight>
<weight id="1837" MUR="1.0"  MUF="1.0"  PDF="61210" > PDF=61200 MemberID=10 </weight>
<weight id="1838" MUR="1.0"  MUF="1.0"  PDF="61211" > PDF=61200 MemberID=11 </weight>
<weight id="1839" MUR="1.0"  MUF="1.0"  PDF="61212" > PDF=61200 MemberID=12 </weight>
<weight id="1840" MUR="1.0"  MUF="1.0"  PDF="61213" > PDF=61200 MemberID=13 </weight>
<weight id="1841" MUR="1.0"  MUF="1.0"  PDF="61214" > PDF=61200 MemberID=14 </weight>
<weight id="1842" MUR="1.0"  MUF="1.0"  PDF="61215" > PDF=61200 MemberID=15 </weight>
<weight id="1843" MUR="1.0"  MUF="1.0"  PDF="61216" > PDF=61200 MemberID=16 </weight>
<weight id="1844" MUR="1.0"  MUF="1.0"  PDF="61217" > PDF=61200 MemberID=17 </weight>
<weight id="1845" MUR="1.0"  MUF="1.0"  PDF="61218" > PDF=61200 MemberID=18 </weight>
<weight id="1846" MUR="1.0"  MUF="1.0"  PDF="61219" > PDF=61200 MemberID=19 </weight>
<weight id="1847" MUR="1.0"  MUF="1.0"  PDF="61220" > PDF=61200 MemberID=20 </weight>
<weight id="1848" MUR="1.0"  MUF="1.0"  PDF="61221" > PDF=61200 MemberID=21 </weight>
<weight id="1849" MUR="1.0"  MUF="1.0"  PDF="61222" > PDF=61200 MemberID=22 </weight>
<weight id="1850" MUR="1.0"  MUF="1.0"  PDF="61223" > PDF=61200 MemberID=23 </weight>
<weight id="1851" MUR="1.0"  MUF="1.0"  PDF="61224" > PDF=61200 MemberID=24 </weight>
<weight id="1852" MUR="1.0"  MUF="1.0"  PDF="61225" > PDF=61200 MemberID=25 </weight>
<weight id="1853" MUR="1.0"  MUF="1.0"  PDF="61226" > PDF=61200 MemberID=26 </weight>
<weight id="1854" MUR="1.0"  MUF="1.0"  PDF="61227" > PDF=61200 MemberID=27 </weight>
<weight id="1855" MUR="1.0"  MUF="1.0"  PDF="61228" > PDF=61200 MemberID=28 </weight>
</weightgroup> # PDFSET to PDFSET
<weightgroup name="ABMP16als118_5_nnlo" combine="symmhessian"> # 42780: NNLO 5-flavour PDFs with different alphas_s for the ABMP16 set
<weight id="1856" MUR="1.0"  MUF="1.0"  PDF="42780" > PDF=42780 MemberID=0 </weight>
<weight id="1857" MUR="1.0"  MUF="1.0"  PDF="42781" > PDF=42780 MemberID=1 </weight>
<weight id="1858" MUR="1.0"  MUF="1.0"  PDF="42782" > PDF=42780 MemberID=2 </weight>
<weight id="1859" MUR="1.0"  MUF="1.0"  PDF="42783" > PDF=42780 MemberID=3 </weight>
<weight id="1860" MUR="1.0"  MUF="1.0"  PDF="42784" > PDF=42780 MemberID=4 </weight>
<weight id="1861" MUR="1.0"  MUF="1.0"  PDF="42785" > PDF=42780 MemberID=5 </weight>
<weight id="1862" MUR="1.0"  MUF="1.0"  PDF="42786" > PDF=42780 MemberID=6 </weight>
<weight id="1863" MUR="1.0"  MUF="1.0"  PDF="42787" > PDF=42780 MemberID=7 </weight>
<weight id="1864" MUR="1.0"  MUF="1.0"  PDF="42788" > PDF=42780 MemberID=8 </weight>
<weight id="1865" MUR="1.0"  MUF="1.0"  PDF="42789" > PDF=42780 MemberID=9 </weight>
<weight id="1866" MUR="1.0"  MUF="1.0"  PDF="42790" > PDF=42780 MemberID=10 </weight>
<weight id="1867" MUR="1.0"  MUF="1.0"  PDF="42791" > PDF=42780 MemberID=11 </weight>
<weight id="1868" MUR="1.0"  MUF="1.0"  PDF="42792" > PDF=42780 MemberID=12 </weight>
<weight id="1869" MUR="1.0"  MUF="1.0"  PDF="42793" > PDF=42780 MemberID=13 </weight>
<weight id="1870" MUR="1.0"  MUF="1.0"  PDF="42794" > PDF=42780 MemberID=14 </weight>
<weight id="1871" MUR="1.0"  MUF="1.0"  PDF="42795" > PDF=42780 MemberID=15 </weight>
<weight id="1872" MUR="1.0"  MUF="1.0"  PDF="42796" > PDF=42780 MemberID=16 </weight>
<weight id="1873" MUR="1.0"  MUF="1.0"  PDF="42797" > PDF=42780 MemberID=17 </weight>
<weight id="1874" MUR="1.0"  MUF="1.0"  PDF="42798" > PDF=42780 MemberID=18 </weight>
<weight id="1875" MUR="1.0"  MUF="1.0"  PDF="42799" > PDF=42780 MemberID=19 </weight>
<weight id="1876" MUR="1.0"  MUF="1.0"  PDF="42800" > PDF=42780 MemberID=20 </weight>
<weight id="1877" MUR="1.0"  MUF="1.0"  PDF="42801" > PDF=42780 MemberID=21 </weight>
<weight id="1878" MUR="1.0"  MUF="1.0"  PDF="42802" > PDF=42780 MemberID=22 </weight>
<weight id="1879" MUR="1.0"  MUF="1.0"  PDF="42803" > PDF=42780 MemberID=23 </weight>
<weight id="1880" MUR="1.0"  MUF="1.0"  PDF="42804" > PDF=42780 MemberID=24 </weight>
<weight id="1881" MUR="1.0"  MUF="1.0"  PDF="42805" > PDF=42780 MemberID=25 </weight>
<weight id="1882" MUR="1.0"  MUF="1.0"  PDF="42806" > PDF=42780 MemberID=26 </weight>
<weight id="1883" MUR="1.0"  MUF="1.0"  PDF="42807" > PDF=42780 MemberID=27 </weight>
<weight id="1884" MUR="1.0"  MUF="1.0"  PDF="42808" > PDF=42780 MemberID=28 </weight>
<weight id="1885" MUR="1.0"  MUF="1.0"  PDF="42809" > PDF=42780 MemberID=29 </weight>
</weightgroup> # PDFSET to PDF
<weight id="1886" MUR="1.0"  MUF="1.0"  PDF="315000" > PDF=315000 MemberID=0 </weight>
<weight id="1887" MUR="1.0"  MUF="1.0"  PDF="315200" > PDF=315200 MemberID=0 </weight>
<weight id="1888" MUR="1.0"  MUF="1.0"  PDF="262000" > PDF=262000 MemberID=0 </weight>
<weight id="1889" MUR="1.0"  MUF="1.0"  PDF="263000" > PDF=263000 MemberID=0 </weight>
</initrwgt>
<scalesfunctionalform>
muR  FxFx merging scale
    muF1 FxFx merging scale
    muF2 FxFx merging scale
    QES  H_T/2 := sum_i mT(i)/2, i=final state
</scalesfunctionalform>
<montecarlomasses>
1   0.000000E+00
       2   0.000000E+00
       3   0.000000E+00
       4   0.000000E+00
       5   0.000000E+00
      11   0.000000E+00
      13   0.000000E+00
      15   0.000000E+00
      21   0.000000E+00
</montecarlomasses>
<madspin>
set seed 473345250
set ms_dir ./madspingrid
set max_running_process 1
set onlyhelicity True 
launch
</madspin>
</header>
<init>
2212   2212 0.65000000E+04 0.65000000E+04 -1 -1   325300   325300 -4   2
 0.34953405E+05 0.57195579E+02 0.74519530E+05      0
 0.25994644E+05 0.41946599E+02 0.74519530E+05      1
</init>
<event npLO=" -1 " npNLO=" 0 ">
 5      0 +7.4519530e+04 2.56499320e+01 7.55820760e-03 1.19603200e-01
       -3 -1    0    0    0  501 +0.0000000000e+00 +0.0000000000e+00 +8.2991401124e+01 8.2991401124e+01 0.0000000000e+00 0.0000e+00 1.0000e+00
        4 -1    0    0  501    0 +0.0000000000e+00 +0.0000000000e+00 -2.0557460946e+01 2.0557460946e+01 0.0000000000e+00 0.0000e+00 -1.0000e+00
       24  2    1    2    0    0 +0.0000000000e+00 +0.0000000000e+00 +6.2433940177e+01 1.0354886207e+02 8.2609744885e+01 0.0000e+00 0.0000e+00
      -13  1    3    3    0    0 -2.4444247094e+01 -7.9896373149e-01 +7.2939514413e+01 7.6930698176e+01 0.0000000000e+00 0.0000e+00 1.0000e+00
       14  1    3    3    0    0 +2.4444247094e+01 +7.9896373149e-01 -1.0505574236e+01 2.6618163894e+01 0.0000000000e+00 0.0000e+00 -1.0000e+00
#aMCatNLO 1  0  0  2  1 0.12476439E+02 0.00000000E+00 -9  5  0 0.00000000E+00 0.00000000E+00 0.00000000E+00 0.00000000E+00 0.00000000E+00
<rwgt>
<wgt id='1001'> +7.4519530e+04 </wgt>
<wgt id='1002'> +7.3849578e+04 </wgt>
<wgt id='1003'> +7.5343496e+04 </wgt>
<wgt id='1004'> +7.8276315e+04 </wgt>
<wgt id='1005'> +7.8320548e+04 </wgt>
<wgt id='1006'> +7.8210046e+04 </wgt>
<wgt id='1007'> +7.1109327e+04 </wgt>
<wgt id='1008'> +6.9620754e+04 </wgt>
<wgt id='1009'> +7.2953690e+04 </wgt>
<wgt id='1010'> +7.4519530e+04 </wgt>
<wgt id='1011'> +7.4962423e+04 </wgt>
<wgt id='1012'> +7.4593197e+04 </wgt>
<wgt id='1013'> +7.5677640e+04 </wgt>
<wgt id='1014'> +7.4156385e+04 </wgt>
<wgt id='1015'> +7.4920688e+04 </wgt>
<wgt id='1016'> +7.4478205e+04 </wgt>
<wgt id='1017'> +7.4433653e+04 </wgt>
<wgt id='1018'> +7.4632682e+04 </wgt>
<wgt id='1019'> +7.3635744e+04 </wgt>
<wgt id='1020'> +7.5148204e+04 </wgt>
<wgt id='1021'> +7.5205390e+04 </wgt>
<wgt id='1022'> +7.3942663e+04 </wgt>
<wgt id='1023'> +7.3927832e+04 </wgt>
<wgt id='1024'> +7.3655495e+04 </wgt>
<wgt id='1025'> +7.3017566e+04 </wgt>
<wgt id='1026'> +7.5277591e+04 </wgt>
<wgt id='1027'> +7.4804613e+04 </wgt>
<wgt id='1028'> +7.5890380e+04 </wgt>
<wgt id='1029'> +7.4276291e+04 </wgt>
<wgt id='1030'> +7.4349864e+04 </wgt>
<wgt id='1031'> +7.4956190e+04 </wgt>
<wgt id='1032'> +7.3766460e+04 </wgt>
<wgt id='1033'> +7.5451974e+04 </wgt>
<wgt id='1034'> +7.6122275e+04 </wgt>
<wgt id='1035'> +7.5702201e+04 </wgt>
<wgt id='1036'> +7.5179079e+04 </wgt>
<wgt id='1037'> +7.3280457e+04 </wgt>
<wgt id='1038'> +7.3669848e+04 </wgt>
<wgt id='1039'> +7.5199690e+04 </wgt>
<wgt id='1040'> +7.4183627e+04 </wgt>
<wgt id='1041'> +7.4089905e+04 </wgt>
<wgt id='1042'> +7.4776653e+04 </wgt>
<wgt id='1043'> +7.4352526e+04 </wgt>
<wgt id='1044'> +7.4442835e+04 </wgt>
<wgt id='1045'> +7.4243216e+04 </wgt>
<wgt id='1046'> +7.4187090e+04 </wgt>
<wgt id='1047'> +7.4427068e+04 </wgt>
<wgt id='1048'> +7.4485657e+04 </wgt>
<wgt id='1049'> +7.4341565e+04 </wgt>
<wgt id='1050'> +7.3935952e+04 </wgt>
<wgt id='1051'> +7.4047093e+04 </wgt>
<wgt id='1052'> +7.4713065e+04 </wgt>
<wgt id='1053'> +7.4961124e+04 </wgt>
<wgt id='1054'> +7.3890075e+04 </wgt>
<wgt id='1055'> +7.4471571e+04 </wgt>
<wgt id='1056'> +7.4547070e+04 </wgt>
<wgt id='1057'> +7.4440132e+04 </wgt>
<wgt id='1058'> +7.4904999e+04 </wgt>
<wgt id='1059'> +7.4609408e+04 </wgt>
<wgt id='1060'> +7.4767929e+04 </wgt>
<wgt id='1061'> +7.4275767e+04 </wgt>
<wgt id='1062'> +7.4309643e+04 </wgt>
<wgt id='1063'> +7.4518051e+04 </wgt>
<wgt id='1064'> +7.4766023e+04 </wgt>
<wgt id='1065'> +7.4707914e+04 </wgt>
<wgt id='1066'> +7.4560672e+04 </wgt>
<wgt id='1067'> +7.4463591e+04 </wgt>
<wgt id='1068'> +7.4600918e+04 </wgt>
<wgt id='1069'> +7.4335201e+04 </wgt>
<wgt id='1070'> +7.4472884e+04 </wgt>
<wgt id='1071'> +7.4508885e+04 </wgt>
<wgt id='1072'> +7.4359068e+04 </wgt>
<wgt id='1073'> +7.4490650e+04 </wgt>
<wgt id='1074'> +7.4572947e+04 </wgt>
<wgt id='1075'> +7.4543398e+04 </wgt>
<wgt id='1076'> +7.4688066e+04 </wgt>
<wgt id='1077'> +7.4347082e+04 </wgt>
<wgt id='1078'> +7.4439678e+04 </wgt>
<wgt id='1079'> +7.4656623e+04 </wgt>
<wgt id='1080'> +7.4576860e+04 </wgt>
<wgt id='1081'> +7.4565083e+04 </wgt>
<wgt id='1082'> +7.4573205e+04 </wgt>
<wgt id='1083'> +7.4528956e+04 </wgt>
<wgt id='1084'> +7.4542528e+04 </wgt>
<wgt id='1085'> +7.4472355e+04 </wgt>
<wgt id='1086'> +7.4674121e+04 </wgt>
<wgt id='1087'> +7.4560640e+04 </wgt>
<wgt id='1088'> +7.4478451e+04 </wgt>
<wgt id='1089'> +7.4376957e+04 </wgt>
<wgt id='1090'> +7.4700882e+04 </wgt>
<wgt id='1091'> +7.4364816e+04 </wgt>
<wgt id='1092'> +7.4299679e+04 </wgt>
<wgt id='1093'> +7.4578005e+04 </wgt>
<wgt id='1094'> +7.4580038e+04 </wgt>
<wgt id='1095'> +7.4568551e+04 </wgt>
<wgt id='1096'> +7.4543332e+04 </wgt>
<wgt id='1097'> +7.4540810e+04 </wgt>
<wgt id='1098'> +7.4671626e+04 </wgt>
<wgt id='1099'> +7.4570613e+04 </wgt>
<wgt id='1100'> +7.4503450e+04 </wgt>
<wgt id='1101'> +7.4567820e+04 </wgt>
<wgt id='1102'> +7.4629243e+04 </wgt>
<wgt id='1103'> +7.4572534e+04 </wgt>
<wgt id='1104'> +7.4350003e+04 </wgt>
<wgt id='1105'> +7.4498372e+04 </wgt>
<wgt id='1106'> +7.4474358e+04 </wgt>
<wgt id='1107'> +7.4601063e+04 </wgt>
<wgt id='1108'> +7.4506482e+04 </wgt>
<wgt id='1109'> +7.4423027e+04 </wgt>
<wgt id='1110'> +7.4519529e+04 </wgt>
<wgt id='1111'> +7.1473537e+04 </wgt>
<wgt id='1112'> +7.6674023e+04 </wgt>
<wgt id='1113'> +7.4519529e+04 </wgt>
<wgt id='1114'> +6.1477243e+04 </wgt>
<wgt id='1115'> +7.7791280e+04 </wgt>
<wgt id='1116'> +8.0643279e+04 </wgt>
<wgt id='1117'> +7.5074135e+04 </wgt>
<wgt id='1118'> +7.4817548e+04 </wgt>
<wgt id='1119'> +6.1663333e+04 </wgt>
<wgt id='1120'> +7.1116215e+04 </wgt>
<wgt id='1121'> +8.5121586e+04 </wgt>
<wgt id='1122'> +7.8259605e+04 </wgt>
<wgt id='1123'> +7.3060536e+04 </wgt>
<wgt id='1124'> +7.3412811e+04 </wgt>
<wgt id='1125'> +7.9606997e+04 </wgt>
<wgt id='1126'> +7.6616241e+04 </wgt>
<wgt id='1127'> +7.6117817e+04 </wgt>
<wgt id='1128'> +7.3368665e+04 </wgt>
<wgt id='1129'> +7.0333377e+04 </wgt>
<wgt id='1130'> +7.1111365e+04 </wgt>
<wgt id='1131'> +7.5274320e+04 </wgt>
<wgt id='1132'> +7.6215163e+04 </wgt>
<wgt id='1133'> +8.3759107e+04 </wgt>
<wgt id='1134'> +7.8293846e+04 </wgt>
<wgt id='1135'> +7.7627384e+04 </wgt>
<wgt id='1136'> +7.1270587e+04 </wgt>
<wgt id='1137'> +8.3435946e+04 </wgt>
<wgt id='1138'> +7.9717292e+04 </wgt>
<wgt id='1139'> +7.3227400e+04 </wgt>
<wgt id='1140'> +7.2951124e+04 </wgt>
<wgt id='1141'> +7.7308172e+04 </wgt>
<wgt id='1142'> +7.0125976e+04 </wgt>
<wgt id='1143'> +7.0242071e+04 </wgt>
<wgt id='1144'> +7.1285281e+04 </wgt>
<wgt id='1145'> +7.7041409e+04 </wgt>
<wgt id='1146'> +7.0829428e+04 </wgt>
<wgt id='1147'> +8.4140949e+04 </wgt>
<wgt id='1148'> +7.2582625e+04 </wgt>
<wgt id='1149'> +7.7987371e+04 </wgt>
<wgt id='1150'> +7.5079478e+04 </wgt>
<wgt id='1151'> +7.4769431e+04 </wgt>
<wgt id='1152'> +7.4099756e+04 </wgt>
<wgt id='1153'> +7.0817961e+04 </wgt>
<wgt id='1154'> +7.2360427e+04 </wgt>
<wgt id='1155'> +6.9672206e+04 </wgt>
<wgt id='1156'> +7.1989754e+04 </wgt>
<wgt id='1157'> +6.7160221e+04 </wgt>
<wgt id='1158'> +7.4156115e+04 </wgt>
<wgt id='1159'> +7.0979782e+04 </wgt>
<wgt id='1160'> +7.4637479e+04 </wgt>
<wgt id='1161'> +8.0413480e+04 </wgt>
<wgt id='1162'> +7.0168831e+04 </wgt>
<wgt id='1163'> +7.0688054e+04 </wgt>
<wgt id='1164'> +7.6257322e+04 </wgt>
<wgt id='1165'> +7.6234324e+04 </wgt>
<wgt id='1166'> +7.7495136e+04 </wgt>
<wgt id='1167'> +6.9874418e+04 </wgt>
<wgt id='1168'> +7.5723623e+04 </wgt>
<wgt id='1169'> +7.6520312e+04 </wgt>
<wgt id='1170'> +7.5120624e+04 </wgt>
<wgt id='1171'> +7.9850175e+04 </wgt>
<wgt id='1172'> +7.3318649e+04 </wgt>
<wgt id='1173'> +7.1895488e+04 </wgt>
<wgt id='1174'> +6.9123642e+04 </wgt>
<wgt id='1175'> +7.5274110e+04 </wgt>
<wgt id='1176'> +7.4574398e+04 </wgt>
<wgt id='1177'> +8.1615207e+04 </wgt>
<wgt id='1178'> +6.9627559e+04 </wgt>
<wgt id='1179'> +6.9170146e+04 </wgt>
<wgt id='1180'> +6.6065950e+04 </wgt>
<wgt id='1181'> +7.2237805e+04 </wgt>
<wgt id='1182'> +7.4529224e+04 </wgt>
<wgt id='1183'> +7.8321494e+04 </wgt>
<wgt id='1184'> +7.3842930e+04 </wgt>
<wgt id='1185'> +6.7998303e+04 </wgt>
<wgt id='1186'> +8.1408159e+04 </wgt>
<wgt id='1187'> +8.0753342e+04 </wgt>
<wgt id='1188'> +7.4828777e+04 </wgt>
<wgt id='1189'> +6.4757342e+04 </wgt>
<wgt id='1190'> +7.6127811e+04 </wgt>
<wgt id='1191'> +7.3201375e+04 </wgt>
<wgt id='1192'> +7.8355678e+04 </wgt>
<wgt id='1193'> +7.0450517e+04 </wgt>
<wgt id='1194'> +7.7136283e+04 </wgt>
<wgt id='1195'> +7.0333377e+04 </wgt>
<wgt id='1196'> +7.3034286e+04 </wgt>
<wgt id='1197'> +8.1856040e+04 </wgt>
<wgt id='1198'> +7.5851997e+04 </wgt>
<wgt id='1199'> +7.2278244e+04 </wgt>
<wgt id='1200'> +7.8525786e+04 </wgt>
<wgt id='1201'> +6.8687073e+04 </wgt>
<wgt id='1202'> +8.1665501e+04 </wgt>
<wgt id='1203'> +7.6088576e+04 </wgt>
<wgt id='1204'> +7.6069527e+04 </wgt>
<wgt id='1205'> +7.8657146e+04 </wgt>
<wgt id='1206'> +7.6554392e+04 </wgt>
<wgt id='1207'> +6.8445715e+04 </wgt>
<wgt id='1208'> +7.6717742e+04 </wgt>
<wgt id='1209'> +7.6383242e+04 </wgt>
<wgt id='1210'> +6.8265399e+04 </wgt>
<wgt id='1211'> +7.5839873e+04 </wgt>
<wgt id='1212'> +7.7975639e+04 </wgt>
<wgt id='1213'> +7.8342222e+04 </wgt>
<wgt id='1214'> +7.4527161e+04 </wgt>
<wgt id='1215'> +5.9749082e+04 </wgt>
<wgt id='1216'> +6.3278338e+04 </wgt>
<wgt id='1217'> +6.5310474e+04 </wgt>
<wgt id='1218'> +6.7844319e+04 </wgt>
<wgt id='1219'> +7.2423910e+04 </wgt>
<wgt id='1220'> +7.5794676e+04 </wgt>
<wgt id='1221'> +8.0046870e+04 </wgt>
<wgt id='1222'> +8.3210027e+04 </wgt>
<wgt id='1223'> +6.9402168e+04 </wgt>
<wgt id='1224'> +6.9642376e+04 </wgt>
<wgt id='1225'> +6.9018663e+04 </wgt>
<wgt id='1226'> +6.9337664e+04 </wgt>
<wgt id='1227'> +6.8854364e+04 </wgt>
<wgt id='1228'> +6.9063983e+04 </wgt>
<wgt id='1229'> +6.9907509e+04 </wgt>
<wgt id='1230'> +6.8682436e+04 </wgt>
<wgt id='1231'> +6.9557078e+04 </wgt>
<wgt id='1232'> +6.8500228e+04 </wgt>
<wgt id='1233'> +7.0784853e+04 </wgt>
<wgt id='1234'> +7.0033842e+04 </wgt>
<wgt id='1235'> +6.8975239e+04 </wgt>
<wgt id='1236'> +6.8919282e+04 </wgt>
<wgt id='1237'> +6.8440286e+04 </wgt>
<wgt id='1238'> +7.1002421e+04 </wgt>
<wgt id='1239'> +6.8161523e+04 </wgt>
<wgt id='1240'> +6.9797713e+04 </wgt>
<wgt id='1241'> +6.8597322e+04 </wgt>
<wgt id='1242'> +6.9978085e+04 </wgt>
<wgt id='1243'> +7.0880681e+04 </wgt>
<wgt id='1244'> +6.7820667e+04 </wgt>
<wgt id='1245'> +6.9091726e+04 </wgt>
<wgt id='1246'> +6.9679225e+04 </wgt>
<wgt id='1247'> +6.8866518e+04 </wgt>
<wgt id='1248'> +7.0440372e+04 </wgt>
<wgt id='1249'> +6.9401017e+04 </wgt>
<wgt id='1250'> +6.9626138e+04 </wgt>
<wgt id='1251'> +6.9900726e+04 </wgt>
<wgt id='1252'> +6.8865634e+04 </wgt>
<wgt id='1253'> +6.9093600e+04 </wgt>
<wgt id='1254'> +6.9399047e+04 </wgt>
<wgt id='1255'> +6.9513370e+04 </wgt>
<wgt id='1256'> +6.8748524e+04 </wgt>
<wgt id='1257'> +6.9449605e+04 </wgt>
<wgt id='1258'> +6.8969488e+04 </wgt>
<wgt id='1259'> +6.9106656e+04 </wgt>
<wgt id='1260'> +6.9093611e+04 </wgt>
<wgt id='1261'> +6.9513193e+04 </wgt>
<wgt id='1262'> +6.9292773e+04 </wgt>
<wgt id='1263'> +6.8967639e+04 </wgt>
<wgt id='1264'> +6.9762559e+04 </wgt>
<wgt id='1265'> +6.9516577e+04 </wgt>
<wgt id='1266'> +6.9140641e+04 </wgt>
<wgt id='1267'> +6.9340439e+04 </wgt>
<wgt id='1268'> +6.9156615e+04 </wgt>
<wgt id='1269'> +6.9212877e+04 </wgt>
<wgt id='1270'> +6.9526072e+04 </wgt>
<wgt id='1271'> +6.9265520e+04 </wgt>
<wgt id='1272'> +6.9398801e+04 </wgt>
<wgt id='1273'> +6.9669143e+04 </wgt>
<wgt id='1274'> +6.9487216e+04 </wgt>
<wgt id='1275'> +6.9499933e+04 </wgt>
<wgt id='1276'> +6.9224291e+04 </wgt>
<wgt id='1277'> +6.9534633e+04 </wgt>
<wgt id='1278'> +6.9511380e+04 </wgt>
<wgt id='1279'> +6.9510075e+04 </wgt>
<wgt id='1280'> +6.9332408e+04 </wgt>
<wgt id='1281'> +6.9164580e+04 </wgt>
<wgt id='1282'> +6.9358400e+04 </wgt>
<wgt id='1283'> +6.9390019e+04 </wgt>
<wgt id='1284'> +6.9475548e+04 </wgt>
<wgt id='1285'> +6.9480483e+04 </wgt>
<wgt id='1286'> +6.9447364e+04 </wgt>
<wgt id='1287'> +6.9240811e+04 </wgt>
<wgt id='1288'> +6.9499507e+04 </wgt>
<wgt id='1289'> +6.9260792e+04 </wgt>
<wgt id='1290'> +6.9387214e+04 </wgt>
<wgt id='1291'> +6.9455309e+04 </wgt>
<wgt id='1292'> +6.9354536e+04 </wgt>
<wgt id='1293'> +6.9338193e+04 </wgt>
<wgt id='1294'> +6.9299374e+04 </wgt>
<wgt id='1295'> +6.9416041e+04 </wgt>
<wgt id='1296'> +6.9400568e+04 </wgt>
<wgt id='1297'> +6.9508333e+04 </wgt>
<wgt id='1298'> +6.9408903e+04 </wgt>
<wgt id='1299'> +6.9320149e+04 </wgt>
<wgt id='1300'> +6.9365698e+04 </wgt>
<wgt id='1301'> +6.9308630e+04 </wgt>
<wgt id='1302'> +6.9565990e+04 </wgt>
<wgt id='1303'> +6.9556586e+04 </wgt>
<wgt id='1304'> +6.9410164e+04 </wgt>
<wgt id='1305'> +6.9362539e+04 </wgt>
<wgt id='1306'> +6.9427383e+04 </wgt>
<wgt id='1307'> +6.9401423e+04 </wgt>
<wgt id='1308'> +6.9384661e+04 </wgt>
<wgt id='1309'> +6.9452778e+04 </wgt>
<wgt id='1310'> +6.9389713e+04 </wgt>
<wgt id='1311'> +6.9488877e+04 </wgt>
<wgt id='1312'> +6.9344143e+04 </wgt>
<wgt id='1313'> +6.9372731e+04 </wgt>
<wgt id='1314'> +6.9384148e+04 </wgt>
<wgt id='1315'> +6.9444059e+04 </wgt>
<wgt id='1316'> +6.9351647e+04 </wgt>
<wgt id='1317'> +6.9412610e+04 </wgt>
<wgt id='1318'> +6.9385910e+04 </wgt>
<wgt id='1319'> +6.9438714e+04 </wgt>
<wgt id='1320'> +6.9414957e+04 </wgt>
<wgt id='1321'> +6.9341497e+04 </wgt>
<wgt id='1322'> +6.9346408e+04 </wgt>
<wgt id='1323'> +6.9372412e+04 </wgt>
<wgt id='1324'> +6.7268646e+04 </wgt>
<wgt id='1325'> +7.2004359e+04 </wgt>
<wgt id='1326'> +6.9721884e+04 </wgt>
<wgt id='1327'> +6.8676920e+04 </wgt>
<wgt id='1328'> +7.6789583e+04 </wgt>
<wgt id='1329'> +7.7875831e+04 </wgt>
<wgt id='1330'> +7.5856873e+04 </wgt>
<wgt id='1331'> +7.7941954e+04 </wgt>
<wgt id='1332'> +7.6159197e+04 </wgt>
<wgt id='1333'> +7.2930252e+04 </wgt>
<wgt id='1334'> +7.9488502e+04 </wgt>
<wgt id='1335'> +7.8571071e+04 </wgt>
<wgt id='1336'> +7.5096296e+04 </wgt>
<wgt id='1337'> +7.5289981e+04 </wgt>
<wgt id='1338'> +7.8955780e+04 </wgt>
<wgt id='1339'> +8.0441585e+04 </wgt>
<wgt id='1340'> +8.0016749e+04 </wgt>
<wgt id='1341'> +7.9557769e+04 </wgt>
<wgt id='1342'> +7.3664500e+04 </wgt>
<wgt id='1343'> +7.7556363e+04 </wgt>
<wgt id='1344'> +7.3557882e+04 </wgt>
<wgt id='1345'> +7.8690103e+04 </wgt>
<wgt id='1346'> +7.6378942e+04 </wgt>
<wgt id='1347'> +7.6228741e+04 </wgt>
<wgt id='1348'> +7.7748922e+04 </wgt>
<wgt id='1349'> +7.7975055e+04 </wgt>
<wgt id='1350'> +7.6274184e+04 </wgt>
<wgt id='1351'> +7.7794890e+04 </wgt>
<wgt id='1352'> +7.3532577e+04 </wgt>
<wgt id='1353'> +7.1921128e+04 </wgt>
<wgt id='1354'> +7.7915933e+04 </wgt>
<wgt id='1355'> +7.7627548e+04 </wgt>
<wgt id='1356'> +7.7245318e+04 </wgt>
<wgt id='1357'> +7.5517530e+04 </wgt>
<wgt id='1358'> +7.4807321e+04 </wgt>
<wgt id='1359'> +7.9403506e+04 </wgt>
<wgt id='1360'> +7.5264257e+04 </wgt>
<wgt id='1361'> +7.2249761e+04 </wgt>
<wgt id='1362'> +7.6617704e+04 </wgt>
<wgt id='1363'> +7.8673187e+04 </wgt>
<wgt id='1364'> +7.7420919e+04 </wgt>
<wgt id='1365'> +7.5211237e+04 </wgt>
<wgt id='1366'> +7.6645890e+04 </wgt>
<wgt id='1367'> +7.4198898e+04 </wgt>
<wgt id='1368'> +7.8310995e+04 </wgt>
<wgt id='1369'> +7.3278399e+04 </wgt>
<wgt id='1370'> +7.8635285e+04 </wgt>
<wgt id='1371'> +7.5100262e+04 </wgt>
<wgt id='1372'> +7.4618776e+04 </wgt>
<wgt id='1373'> +7.6553884e+04 </wgt>
<wgt id='1374'> +7.7728101e+04 </wgt>
<wgt id='1375'> +7.6228157e+04 </wgt>
<wgt id='1376'> +7.8693466e+04 </wgt>
<wgt id='1377'> +7.7709688e+04 </wgt>
<wgt id='1378'> +8.0216128e+04 </wgt>
<wgt id='1379'> +7.7707008e+04 </wgt>
<wgt id='1380'> +7.2403605e+04 </wgt>
<wgt id='1381'> +7.4927725e+04 </wgt>
<wgt id='1382'> +8.0982699e+04 </wgt>
<wgt id='1383'> +7.9760350e+04 </wgt>
<wgt id='1384'> +7.6850877e+04 </wgt>
<wgt id='1385'> +8.2874648e+04 </wgt>
<wgt id='1386'> +7.2966954e+04 </wgt>
<wgt id='1387'> +7.7547230e+04 </wgt>
<wgt id='1388'> +7.6318225e+04 </wgt>
<wgt id='1389'> +7.6010905e+04 </wgt>
<wgt id='1390'> +7.9690168e+04 </wgt>
<wgt id='1391'> +7.4232406e+04 </wgt>
<wgt id='1392'> +8.0345392e+04 </wgt>
<wgt id='1393'> +8.2673130e+04 </wgt>
<wgt id='1394'> +7.5211237e+04 </wgt>
<wgt id='1395'> +7.7196266e+04 </wgt>
<wgt id='1396'> +7.5714357e+04 </wgt>
<wgt id='1397'> +7.6753875e+04 </wgt>
<wgt id='1398'> +7.5584655e+04 </wgt>
<wgt id='1399'> +7.7529615e+04 </wgt>
<wgt id='1400'> +7.5543779e+04 </wgt>
<wgt id='1401'> +7.8466111e+04 </wgt>
<wgt id='1402'> +7.4040689e+04 </wgt>
<wgt id='1403'> +7.4781773e+04 </wgt>
<wgt id='1404'> +7.8544318e+04 </wgt>
<wgt id='1405'> +7.3546732e+04 </wgt>
<wgt id='1406'> +7.5356437e+04 </wgt>
<wgt id='1407'> +7.5149645e+04 </wgt>
<wgt id='1408'> +7.5589350e+04 </wgt>
<wgt id='1409'> +7.6696293e+04 </wgt>
<wgt id='1410'> +7.3477737e+04 </wgt>
<wgt id='1411'> +7.6427334e+04 </wgt>
<wgt id='1412'> +7.6055958e+04 </wgt>
<wgt id='1413'> +7.7210097e+04 </wgt>
<wgt id='1414'> +8.0497941e+04 </wgt>
<wgt id='1415'> +7.9424588e+04 </wgt>
<wgt id='1416'> +7.7795447e+04 </wgt>
<wgt id='1417'> +7.5592458e+04 </wgt>
<wgt id='1418'> +7.4408474e+04 </wgt>
<wgt id='1419'> +8.1193526e+04 </wgt>
<wgt id='1420'> +8.1522564e+04 </wgt>
<wgt id='1421'> +7.4930949e+04 </wgt>
<wgt id='1422'> +7.8201527e+04 </wgt>
<wgt id='1423'> +7.6877881e+04 </wgt>
<wgt id='1424'> +7.7898835e+04 </wgt>
<wgt id='1425'> +7.5661859e+04 </wgt>
<wgt id='1426'> +7.7845737e+04 </wgt>
<wgt id='1427'> +7.5521662e+04 </wgt>
<wgt id='1428'> +7.1391769e+04 </wgt>
<wgt id='1429'> +7.5182731e+04 </wgt>
<wgt id='1430'> +7.8962364e+04 </wgt>
<wgt id='1431'> +7.6970688e+04 </wgt>
<wgt id='1432'> +7.7116102e+04 </wgt>
<wgt id='1433'> +7.7797874e+04 </wgt>
<wgt id='1434'> +7.6870104e+04 </wgt>
<wgt id='1435'> +7.7116790e+04 </wgt>
<wgt id='1436'> +7.8515042e+04 </wgt>
<wgt id='1437'> +7.6365535e+04 </wgt>
<wgt id='1438'> +7.6537721e+04 </wgt>
<wgt id='1439'> +7.7301047e+04 </wgt>
<wgt id='1440'> +7.7334602e+04 </wgt>
<wgt id='1441'> +7.7228031e+04 </wgt>
<wgt id='1442'> +7.7847283e+04 </wgt>
<wgt id='1443'> +7.7017344e+04 </wgt>
<wgt id='1444'> +7.7600773e+04 </wgt>
<wgt id='1445'> +7.6677288e+04 </wgt>
<wgt id='1446'> +7.7547790e+04 </wgt>
<wgt id='1447'> +7.6606480e+04 </wgt>
<wgt id='1448'> +7.6873363e+04 </wgt>
<wgt id='1449'> +7.7035606e+04 </wgt>
<wgt id='1450'> +7.7044865e+04 </wgt>
<wgt id='1451'> +7.7157915e+04 </wgt>
<wgt id='1452'> +7.6844728e+04 </wgt>
<wgt id='1453'> +7.6969944e+04 </wgt>
<wgt id='1454'> +7.6926120e+04 </wgt>
<wgt id='1455'> +7.7066697e+04 </wgt>
<wgt id='1456'> +7.6927881e+04 </wgt>
<wgt id='1457'> +7.7011785e+04 </wgt>
<wgt id='1458'> +7.6734656e+04 </wgt>
<wgt id='1459'> +7.6920093e+04 </wgt>
<wgt id='1460'> +7.6840088e+04 </wgt>
<wgt id='1461'> +7.7018506e+04 </wgt>
<wgt id='1462'> +7.6908240e+04 </wgt>
<wgt id='1463'> +7.7008234e+04 </wgt>
<wgt id='1464'> +7.6937515e+04 </wgt>
<wgt id='1465'> +7.6917397e+04 </wgt>
<wgt id='1466'> +7.6804327e+04 </wgt>
<wgt id='1467'> +7.6890551e+04 </wgt>
<wgt id='1468'> +7.7024990e+04 </wgt>
<wgt id='1469'> +7.6967424e+04 </wgt>
<wgt id='1470'> +7.6937373e+04 </wgt>
<wgt id='1471'> +7.7027381e+04 </wgt>
<wgt id='1472'> +7.7014179e+04 </wgt>
<wgt id='1473'> +7.6957738e+04 </wgt>
<wgt id='1474'> +7.6960468e+04 </wgt>
<wgt id='1475'> +7.7010149e+04 </wgt>
<wgt id='1476'> +7.6912096e+04 </wgt>
<wgt id='1477'> +7.6993755e+04 </wgt>
<wgt id='1478'> +7.6997394e+04 </wgt>
<wgt id='1479'> +7.6960183e+04 </wgt>
<wgt id='1480'> +7.6989996e+04 </wgt>
<wgt id='1481'> +7.6946124e+04 </wgt>
<wgt id='1482'> +7.5182731e+04 </wgt>
<wgt id='1483'> +7.8962364e+04 </wgt>
<wgt id='1484'> +7.5599882e+04 </wgt>
<wgt id='1485'> +7.4155858e+04 </wgt>
<wgt id='1486'> +7.5319787e+04 </wgt>
<wgt id='1487'> +7.4393480e+04 </wgt>
<wgt id='1488'> +7.6321261e+04 </wgt>
<wgt id='1489'> +7.6483388e+04 </wgt>
<wgt id='1490'> +7.4005509e+04 </wgt>
<wgt id='1491'> +8.0316336e+04 </wgt>
<wgt id='1492'> +7.5209130e+04 </wgt>
<wgt id='1493'> +7.3785173e+04 </wgt>
<wgt id='1494'> +7.6479956e+04 </wgt>
<wgt id='1495'> +7.9699995e+04 </wgt>
<wgt id='1496'> +7.7430503e+04 </wgt>
<wgt id='1497'> +7.9047695e+04 </wgt>
<wgt id='1498'> +7.3071244e+04 </wgt>
<wgt id='1499'> +7.4700409e+04 </wgt>
<wgt id='1500'> +7.4546706e+04 </wgt>
<wgt id='1501'> +7.7836917e+04 </wgt>
<wgt id='1502'> +7.5046653e+04 </wgt>
<wgt id='1503'> +7.7213477e+04 </wgt>
<wgt id='1504'> +7.5941070e+04 </wgt>
<wgt id='1505'> +7.4711011e+04 </wgt>
<wgt id='1506'> +7.6761483e+04 </wgt>
<wgt id='1507'> +7.5461978e+04 </wgt>
<wgt id='1508'> +7.9323782e+04 </wgt>
<wgt id='1509'> +7.3621259e+04 </wgt>
<wgt id='1510'> +7.6318884e+04 </wgt>
<wgt id='1511'> +7.3783061e+04 </wgt>
<wgt id='1512'> +7.3530765e+04 </wgt>
<wgt id='1513'> +7.9258256e+04 </wgt>
<wgt id='1514'> +7.6932736e+04 </wgt>
<wgt id='1515'> +7.4999003e+04 </wgt>
<wgt id='1516'> +7.7323670e+04 </wgt>
<wgt id='1517'> +7.2787741e+04 </wgt>
<wgt id='1518'> +7.3601898e+04 </wgt>
<wgt id='1519'> +7.2723504e+04 </wgt>
<wgt id='1520'> +7.3632739e+04 </wgt>
<wgt id='1521'> +7.6727990e+04 </wgt>
<wgt id='1522'> +7.5009627e+04 </wgt>
<wgt id='1523'> +7.6126994e+04 </wgt>
<wgt id='1524'> +7.4339067e+04 </wgt>
<wgt id='1525'> +7.3084513e+04 </wgt>
<wgt id='1526'> +7.4570279e+04 </wgt>
<wgt id='1527'> +7.4529484e+04 </wgt>
<wgt id='1528'> +7.5576730e+04 </wgt>
<wgt id='1529'> +7.6374858e+04 </wgt>
<wgt id='1530'> +7.5574692e+04 </wgt>
<wgt id='1531'> +7.5761299e+04 </wgt>
<wgt id='1532'> +7.5154145e+04 </wgt>
<wgt id='1533'> +7.3106723e+04 </wgt>
<wgt id='1534'> +7.6563961e+04 </wgt>
<wgt id='1535'> +7.7033726e+04 </wgt>
<wgt id='1536'> +7.3946987e+04 </wgt>
<wgt id='1537'> +7.6899188e+04 </wgt>
<wgt id='1538'> +7.7080977e+04 </wgt>
<wgt id='1539'> +7.4490413e+04 </wgt>
<wgt id='1540'> +7.7117745e+04 </wgt>
<wgt id='1541'> +7.3490213e+04 </wgt>
<wgt id='1542'> +7.7346694e+04 </wgt>
<wgt id='1543'> +7.4975799e+04 </wgt>
<wgt id='1544'> +7.4317455e+04 </wgt>
<wgt id='1545'> +7.4035401e+04 </wgt>
<wgt id='1546'> +7.4591034e+04 </wgt>
<wgt id='1547'> +7.6244967e+04 </wgt>
<wgt id='1548'> +7.4800574e+04 </wgt>
<wgt id='1549'> +7.7632391e+04 </wgt>
<wgt id='1550'> +7.6035298e+04 </wgt>
<wgt id='1551'> +7.5920647e+04 </wgt>
<wgt id='1552'> +7.3753747e+04 </wgt>
<wgt id='1553'> +7.6125315e+04 </wgt>
<wgt id='1554'> +7.5435617e+04 </wgt>
<wgt id='1555'> +7.7427443e+04 </wgt>
<wgt id='1556'> +7.6446347e+04 </wgt>
<wgt id='1557'> +7.5938762e+04 </wgt>
<wgt id='1558'> +7.3347773e+04 </wgt>
<wgt id='1559'> +7.4457720e+04 </wgt>
<wgt id='1560'> +7.1176857e+04 </wgt>
<wgt id='1561'> +7.6985637e+04 </wgt>
<wgt id='1562'> +7.5817301e+04 </wgt>
<wgt id='1563'> +7.7274825e+04 </wgt>
<wgt id='1564'> +7.5328182e+04 </wgt>
<wgt id='1565'> +7.2250478e+04 </wgt>
<wgt id='1566'> +7.4565574e+04 </wgt>
<wgt id='1567'> +7.7614598e+04 </wgt>
<wgt id='1568'> +7.5911412e+04 </wgt>
<wgt id='1569'> +7.6302668e+04 </wgt>
<wgt id='1570'> +7.4117928e+04 </wgt>
<wgt id='1571'> +7.5868346e+04 </wgt>
<wgt id='1572'> +7.7121663e+04 </wgt>
<wgt id='1573'> +7.6795010e+04 </wgt>
<wgt id='1574'> +7.7361051e+04 </wgt>
<wgt id='1575'> +7.6176113e+04 </wgt>
<wgt id='1576'> +7.4296056e+04 </wgt>
<wgt id='1577'> +7.7023629e+04 </wgt>
<wgt id='1578'> +7.4521087e+04 </wgt>
<wgt id='1579'> +7.7100976e+04 </wgt>
<wgt id='1580'> +7.7071263e+04 </wgt>
<wgt id='1581'> +7.3631060e+04 </wgt>
<wgt id='1582'> +7.5173125e+04 </wgt>
<wgt id='1583'> +7.5297861e+04 </wgt>
<wgt id='1584'> +7.7862978e+04 </wgt>
<wgt id='1585'> +7.4072355e+04 </wgt>
<wgt id='1586'> +5.5589060e+04 </wgt>
<wgt id='1587'> +7.3379505e+04 </wgt>
<wgt id='1588'> +7.5182731e+04 </wgt>
<wgt id='1589'> +7.6149242e+04 </wgt>
<wgt id='1590'> +7.8547137e+04 </wgt>
<wgt id='1591'> +7.8962364e+04 </wgt>
<wgt id='1592'> +8.0945631e+04 </wgt>
<wgt id='1593'> +6.9844978e+04 </wgt>
<wgt id='1594'> +6.8920935e+04 </wgt>
<wgt id='1595'> +7.0054061e+04 </wgt>
<wgt id='1596'> +6.8497105e+04 </wgt>
<wgt id='1597'> +6.7951956e+04 </wgt>
<wgt id='1598'> +7.2924559e+04 </wgt>
<wgt id='1599'> +6.7494754e+04 </wgt>
<wgt id='1600'> +7.4977203e+04 </wgt>
<wgt id='1601'> +6.5660258e+04 </wgt>
<wgt id='1602'> +7.3346780e+04 </wgt>
<wgt id='1603'> +6.7281995e+04 </wgt>
<wgt id='1604'> +7.0019514e+04 </wgt>
<wgt id='1605'> +6.9328059e+04 </wgt>
<wgt id='1606'> +6.6350593e+04 </wgt>
<wgt id='1607'> +7.1964971e+04 </wgt>
<wgt id='1608'> +6.6594050e+04 </wgt>
<wgt id='1609'> +6.8835502e+04 </wgt>
<wgt id='1610'> +6.9014716e+04 </wgt>
<wgt id='1611'> +7.0700270e+04 </wgt>
<wgt id='1612'> +6.8105125e+04 </wgt>
<wgt id='1613'> +7.2363682e+04 </wgt>
<wgt id='1614'> +6.8734561e+04 </wgt>
<wgt id='1615'> +7.1837490e+04 </wgt>
<wgt id='1616'> +7.0093752e+04 </wgt>
<wgt id='1617'> +6.8624238e+04 </wgt>
<wgt id='1618'> +6.9560982e+04 </wgt>
<wgt id='1619'> +7.0564546e+04 </wgt>
<wgt id='1620'> +6.9699241e+04 </wgt>
<wgt id='1621'> +6.8576784e+04 </wgt>
<wgt id='1622'> +6.8566965e+04 </wgt>
<wgt id='1623'> +7.0467545e+04 </wgt>
<wgt id='1624'> +7.0676634e+04 </wgt>
<wgt id='1625'> +6.6087320e+04 </wgt>
<wgt id='1626'> +6.9316122e+04 </wgt>
<wgt id='1627'> +7.0064592e+04 </wgt>
<wgt id='1628'> +6.8699691e+04 </wgt>
<wgt id='1629'> +6.8101726e+04 </wgt>
<wgt id='1630'> +6.4958183e+04 </wgt>
<wgt id='1631'> +7.5444329e+04 </wgt>
<wgt id='1632'> +6.6248772e+04 </wgt>
<wgt id='1633'> +7.3750643e+04 </wgt>
<wgt id='1634'> +6.7578727e+04 </wgt>
<wgt id='1635'> +7.2237638e+04 </wgt>
<wgt id='1636'> +7.0171419e+04 </wgt>
<wgt id='1637'> +6.8913068e+04 </wgt>
<wgt id='1638'> +7.0534385e+04 </wgt>
<wgt id='1639'> +6.7368510e+04 </wgt>
<wgt id='1640'> +6.8541052e+04 </wgt>
<wgt id='1641'> +7.0129897e+04 </wgt>
<wgt id='1642'> +6.9848175e+04 </wgt>
<wgt id='1643'> +6.8806704e+04 </wgt>
<wgt id='1644'> +6.5854029e+04 </wgt>
<wgt id='1645'> +7.5370021e+04 </wgt>
<wgt id='1646'> +6.5997938e+04 </wgt>
<wgt id='1647'> +7.1411890e+04 </wgt>
<wgt id='1648'> +6.7684486e+04 </wgt>
<wgt id='1649'> +7.1026759e+04 </wgt>
<wgt id='1650'> +7.0041462e+04 </wgt>
<wgt id='1651'> +6.9756810e+04 </wgt>
<wgt id='1652'> +6.7928344e+04 </wgt>
<wgt id='1653'> +6.8928484e+04 </wgt>
<wgt id='1654'> +7.0687057e+04 </wgt>
<wgt id='1655'> +7.1459348e+04 </wgt>
<wgt id='1656'> +7.8200074e+04 </wgt>
<wgt id='1657'> +7.7901264e+04 </wgt>
<wgt id='1658'> +7.7517421e+04 </wgt>
<wgt id='1659'> +7.8091466e+04 </wgt>
<wgt id='1660'> +7.8218436e+04 </wgt>
<wgt id='1661'> +7.6121944e+04 </wgt>
<wgt id='1662'> +7.9183060e+04 </wgt>
<wgt id='1663'> +7.7995883e+04 </wgt>
<wgt id='1664'> +7.7477569e+04 </wgt>
<wgt id='1665'> +7.7389986e+04 </wgt>
<wgt id='1666'> +7.8273913e+04 </wgt>
<wgt id='1667'> +7.6436110e+04 </wgt>
<wgt id='1668'> +7.9447506e+04 </wgt>
<wgt id='1669'> +7.5457448e+04 </wgt>
<wgt id='1670'> +8.1800072e+04 </wgt>
<wgt id='1671'> +7.7813245e+04 </wgt>
<wgt id='1672'> +7.8404011e+04 </wgt>
<wgt id='1673'> +8.0396819e+04 </wgt>
<wgt id='1674'> +7.6698059e+04 </wgt>
<wgt id='1675'> +7.8682605e+04 </wgt>
<wgt id='1676'> +7.6039467e+04 </wgt>
<wgt id='1677'> +7.8945178e+04 </wgt>
<wgt id='1678'> +7.6769198e+04 </wgt>
<wgt id='1679'> +8.0795138e+04 </wgt>
<wgt id='1680'> +7.6223463e+04 </wgt>
<wgt id='1681'> +7.8606060e+04 </wgt>
<wgt id='1682'> +7.6989191e+04 </wgt>
<wgt id='1683'> +7.7948155e+04 </wgt>
<wgt id='1684'> +7.7636094e+04 </wgt>
<wgt id='1685'> +7.9787621e+04 </wgt>
<wgt id='1686'> +7.5521872e+04 </wgt>
<wgt id='1687'> +7.4575805e+04 </wgt>
<wgt id='1688'> +8.3638279e+04 </wgt>
<wgt id='1689'> +7.5412060e+04 </wgt>
<wgt id='1690'> +8.1533537e+04 </wgt>
<wgt id='1691'> +7.7610695e+04 </wgt>
<wgt id='1692'> +7.8258058e+04 </wgt>
<wgt id='1693'> +7.3619698e+04 </wgt>
<wgt id='1694'> +8.3308908e+04 </wgt>
<wgt id='1695'> +7.7206115e+04 </wgt>
<wgt id='1696'> +7.9189223e+04 </wgt>
<wgt id='1697'> +7.6921884e+04 </wgt>
<wgt id='1698'> +7.9707877e+04 </wgt>
<wgt id='1699'> +7.7878872e+04 </wgt>
<wgt id='1700'> +7.5890985e+04 </wgt>
<wgt id='1701'> +8.0410071e+04 </wgt>
<wgt id='1702'> +7.6295540e+04 </wgt>
<wgt id='1703'> +7.8965976e+04 </wgt>
<wgt id='1704'> +7.7900579e+04 </wgt>
<wgt id='1705'> +7.7728271e+04 </wgt>
<wgt id='1706'> +7.7646570e+04 </wgt>
<wgt id='1707'> +7.7598280e+04 </wgt>
<wgt id='1708'> +7.8182232e+04 </wgt>
<wgt id='1709'> +7.5244099e+04 </wgt>
<wgt id='1710'> +7.9123556e+04 </wgt>
<wgt id='1711'> +7.6819391e+04 </wgt>
<wgt id='1712'> +7.8557632e+04 </wgt>
<wgt id='1713'> +7.7489647e+04 </wgt>
<wgt id='1714'> +7.8393464e+04 </wgt>
<wgt id='1715'> +7.7799710e+04 </wgt>
<wgt id='1716'> +7.1674912e+04 </wgt>
<wgt id='1717'> +7.7863358e+04 </wgt>
<wgt id='1718'> +7.7981833e+04 </wgt>
<wgt id='1719'> +7.7711510e+04 </wgt>
<wgt id='1720'> +7.8608464e+04 </wgt>
<wgt id='1721'> +7.7182805e+04 </wgt>
<wgt id='1722'> +7.8429202e+04 </wgt>
<wgt id='1723'> +7.6936492e+04 </wgt>
<wgt id='1724'> +7.6979904e+04 </wgt>
<wgt id='1725'> +7.8580816e+04 </wgt>
<wgt id='1726'> +7.6987622e+04 </wgt>
<wgt id='1727'> +7.8766181e+04 </wgt>
<wgt id='1728'> +7.7658113e+04 </wgt>
<wgt id='1729'> +7.8061692e+04 </wgt>
<wgt id='1730'> +7.7661261e+04 </wgt>
<wgt id='1731'> +7.8007462e+04 </wgt>
<wgt id='1732'> +7.7876984e+04 </wgt>
<wgt id='1733'> +7.7876984e+04 </wgt>
<wgt id='1734'> +7.7877558e+04 </wgt>
<wgt id='1735'> +7.7849999e+04 </wgt>
<wgt id='1736'> +7.8271155e+04 </wgt>
<wgt id='1737'> +7.7306808e+04 </wgt>
<wgt id='1738'> +7.8117987e+04 </wgt>
<wgt id='1739'> +7.7432944e+04 </wgt>
<wgt id='1740'> +7.7737179e+04 </wgt>
<wgt id='1741'> +7.8167434e+04 </wgt>
<wgt id='1742'> +7.7593495e+04 </wgt>
<wgt id='1743'> +7.8180021e+04 </wgt>
<wgt id='1744'> +7.7611392e+04 </wgt>
<wgt id='1745'> +7.8543078e+04 </wgt>
<wgt id='1746'> +7.7351382e+04 </wgt>
<wgt id='1747'> +7.8147341e+04 </wgt>
<wgt id='1748'> +7.8105531e+04 </wgt>
<wgt id='1749'> +7.7045152e+04 </wgt>
<wgt id='1750'> +7.7782356e+04 </wgt>
<wgt id='1751'> +7.7951307e+04 </wgt>
<wgt id='1752'> +7.7721692e+04 </wgt>
<wgt id='1753'> +7.8061644e+04 </wgt>
<wgt id='1754'> +7.8027706e+04 </wgt>
<wgt id='1755'> +7.7774663e+04 </wgt>
<wgt id='1756'> +7.8018778e+04 </wgt>
<wgt id='1757'> +7.7509579e+04 </wgt>
<wgt id='1758'> +7.7709041e+04 </wgt>
<wgt id='1759'> +7.7989417e+04 </wgt>
<wgt id='1760'> +7.7456381e+04 </wgt>
<wgt id='1761'> +7.8328250e+04 </wgt>
<wgt id='1762'> +7.7868727e+04 </wgt>
<wgt id='1763'> +7.7265062e+04 </wgt>
<wgt id='1764'> +7.7894118e+04 </wgt>
<wgt id='1765'> +7.7725888e+04 </wgt>
<wgt id='1766'> +7.7747793e+04 </wgt>
<wgt id='1767'> +7.8022840e+04 </wgt>
<wgt id='1768'> +7.7874492e+04 </wgt>
<wgt id='1769'> +7.7810596e+04 </wgt>
<wgt id='1770'> +7.7717191e+04 </wgt>
<wgt id='1771'> +7.7691622e+04 </wgt>
<wgt id='1772'> +7.8084158e+04 </wgt>
<wgt id='1773'> +7.7791976e+04 </wgt>
<wgt id='1774'> +7.9157693e+04 </wgt>
<wgt id='1775'> +7.7002763e+04 </wgt>
<wgt id='1776'> +7.7475897e+04 </wgt>
<wgt id='1777'> +7.7997405e+04 </wgt>
<wgt id='1778'> +7.8185196e+04 </wgt>
<wgt id='1779'> +7.7543778e+04 </wgt>
<wgt id='1780'> +7.6093941e+04 </wgt>
<wgt id='1781'> +7.7221530e+04 </wgt>
<wgt id='1782'> +7.7863358e+04 </wgt>
<wgt id='1783'> +7.7828773e+04 </wgt>
<wgt id='1784'> +7.5341726e+04 </wgt>
<wgt id='1785'> +7.6372661e+04 </wgt>
<wgt id='1786'> +8.0769134e+04 </wgt>
<wgt id='1787'> +7.5632900e+04 </wgt>
<wgt id='1788'> +7.4929861e+04 </wgt>
<wgt id='1789'> +7.5219220e+04 </wgt>
<wgt id='1790'> +7.5375285e+04 </wgt>
<wgt id='1791'> +7.5063518e+04 </wgt>
<wgt id='1792'> +7.6078046e+04 </wgt>
<wgt id='1793'> +7.5685231e+04 </wgt>
<wgt id='1794'> +7.5157254e+04 </wgt>
<wgt id='1795'> +7.5290529e+04 </wgt>
<wgt id='1796'> +7.5546909e+04 </wgt>
<wgt id='1797'> +7.3700415e+04 </wgt>
<wgt id='1798'> +7.5376099e+04 </wgt>
<wgt id='1799'> +7.5723235e+04 </wgt>
<wgt id='1800'> +7.4176330e+04 </wgt>
<wgt id='1801'> +7.4417531e+04 </wgt>
<wgt id='1802'> +7.5421172e+04 </wgt>
<wgt id='1803'> +7.4863700e+04 </wgt>
<wgt id='1804'> +7.5391959e+04 </wgt>
<wgt id='1805'> +7.6756736e+04 </wgt>
<wgt id='1806'> +7.4728160e+04 </wgt>
<wgt id='1807'> +7.5509820e+04 </wgt>
<wgt id='1808'> +7.5162285e+04 </wgt>
<wgt id='1809'> +7.5288758e+04 </wgt>
<wgt id='1810'> +7.5613749e+04 </wgt>
<wgt id='1811'> +7.5473674e+04 </wgt>
<wgt id='1812'> +7.6483400e+04 </wgt>
<wgt id='1813'> +7.6847236e+04 </wgt>
<wgt id='1814'> +7.5267792e+04 </wgt>
<wgt id='1815'> +7.5231472e+04 </wgt>
<wgt id='1816'> +7.5541555e+04 </wgt>
<wgt id='1817'> +7.5369309e+04 </wgt>
<wgt id='1818'> +7.5643888e+04 </wgt>
<wgt id='1819'> +7.5395595e+04 </wgt>
<wgt id='1820'> +7.4382406e+04 </wgt>
<wgt id='1821'> +7.5323035e+04 </wgt>
<wgt id='1822'> +7.5249565e+04 </wgt>
<wgt id='1823'> +7.2792170e+04 </wgt>
<wgt id='1824'> +7.5341105e+04 </wgt>
<wgt id='1825'> +7.4414354e+04 </wgt>
<wgt id='1826'> +7.6198448e+04 </wgt>
<wgt id='1827'> +7.5881004e+04 </wgt>
<wgt id='1828'> +7.5923973e+04 </wgt>
<wgt id='1829'> +7.5836010e+04 </wgt>
<wgt id='1830'> +7.6004575e+04 </wgt>
<wgt id='1831'> +7.5754975e+04 </wgt>
<wgt id='1832'> +7.6071110e+04 </wgt>
<wgt id='1833'> +7.5689254e+04 </wgt>
<wgt id='1834'> +7.5831212e+04 </wgt>
<wgt id='1835'> +7.5923697e+04 </wgt>
<wgt id='1836'> +7.6161969e+04 </wgt>
<wgt id='1837'> +7.5594878e+04 </wgt>
<wgt id='1838'> +7.5977724e+04 </wgt>
<wgt id='1839'> +7.5781820e+04 </wgt>
<wgt id='1840'> +7.5647779e+04 </wgt>
<wgt id='1841'> +7.6118697e+04 </wgt>
<wgt id='1842'> +7.5842177e+04 </wgt>
<wgt id='1843'> +7.6048030e+04 </wgt>
<wgt id='1844'> +7.5850672e+04 </wgt>
<wgt id='1845'> +7.5883352e+04 </wgt>
<wgt id='1846'> +7.5783381e+04 </wgt>
<wgt id='1847'> +7.5963344e+04 </wgt>
<wgt id='1848'> +7.5317771e+04 </wgt>
<wgt id='1849'> +7.6283079e+04 </wgt>
<wgt id='1850'> +7.6268496e+04 </wgt>
<wgt id='1851'> +7.5470921e+04 </wgt>
<wgt id='1852'> +7.6347160e+04 </wgt>
<wgt id='1853'> +7.5189560e+04 </wgt>
<wgt id='1854'> +7.6363632e+04 </wgt>
<wgt id='1855'> +7.5521468e+04 </wgt>
<wgt id='1856'> +7.6840055e+04 </wgt>
<wgt id='1857'> +7.6813897e+04 </wgt>
<wgt id='1858'> +7.6847218e+04 </wgt>
<wgt id='1859'> +7.6778937e+04 </wgt>
<wgt id='1860'> +7.6843663e+04 </wgt>
<wgt id='1861'> +7.7066691e+04 </wgt>
<wgt id='1862'> +7.7161504e+04 </wgt>
<wgt id='1863'> +7.6135083e+04 </wgt>
<wgt id='1864'> +7.7025204e+04 </wgt>
<wgt id='1865'> +7.6949108e+04 </wgt>
<wgt id='1866'> +7.6847041e+04 </wgt>
<wgt id='1867'> +7.6836605e+04 </wgt>
<wgt id='1868'> +7.7053098e+04 </wgt>
<wgt id='1869'> +7.6766242e+04 </wgt>
<wgt id='1870'> +7.6790929e+04 </wgt>
<wgt id='1871'> +7.6823053e+04 </wgt>
<wgt id='1872'> +7.6934957e+04 </wgt>
<wgt id='1873'> +7.6827306e+04 </wgt>
<wgt id='1874'> +7.6744125e+04 </wgt>
<wgt id='1875'> +7.6891747e+04 </wgt>
<wgt id='1876'> +7.6540203e+04 </wgt>
<wgt id='1877'> +7.7193918e+04 </wgt>
<wgt id='1878'> +7.6345696e+04 </wgt>
<wgt id='1879'> +7.7041112e+04 </wgt>
<wgt id='1880'> +7.7247128e+04 </wgt>
<wgt id='1881'> +7.7373395e+04 </wgt>
<wgt id='1882'> +7.6905855e+04 </wgt>
<wgt id='1883'> +7.6605927e+04 </wgt>
<wgt id='1884'> +7.6959666e+04 </wgt>
<wgt id='1885'> +7.6091800e+04 </wgt>
<wgt id='1886'> +2.2029681e+04 </wgt>
<wgt id='1887'> +3.3012425e+04 </wgt>
<wgt id='1888'> +4.3145786e+04 </wgt>
<wgt id='1889'> +5.2367394e+04 </wgt>
</rwgt>
</event>
<event npLO=" -1 " npNLO=" 0 ">
 5      0 +7.4519530e+04 3.00000000e+01 7.55820760e-03 1.19537610e-01
       -3 -1    0    0    0  501 +0.0000000000e+00 +0.0000000000e+00 +1.3813176800e+01 1.3813176800e+01 0.0000000000e+00 0.0000e+00 1.0000e+00
        4 -1    0    0  501    0 +0.0000000000e+00 +0.0000000000e+00 -9.3357417190e+01 9.3357417190e+01 0.0000000000e+00 0.0000e+00 -1.0000e+00
       24  2    1    2    0    0 +0.0000000000e+00 +0.0000000000e+00 -7.9544240390e+01 1.0717059399e+02 7.1820958201e+01 0.0000e+00 0.0000e+00
      -11  1    3    3    0    0 +1.4766669493e+01 -2.6494198589e+00 +8.9128536652e+00 1.7450298391e+01 0.0000000000e+00 0.0000e+00 1.0000e+00
       12  1    3    3    0    0 -1.4766669493e+01 +2.6494198589e+00 -8.8457094056e+01 8.9720295598e+01 0.0000000000e+00 0.0000e+00 -1.0000e+00
#aMCatNLO 1  0  0  2  1 0.53053968E+02 0.00000000E+00 -9  5  0 0.00000000E+00 0.00000000E+00 0.00000000E+00 0.00000000E+00 0.00000000E+00
<rwgt>
<wgt id='1001'> +7.4519530e+04 </wgt>
<wgt id='1002'> +7.6949744e+04 </wgt>
<wgt id='1003'> +7.1478435e+04 </wgt>
<wgt id='1004'> +5.1698253e+04 </wgt>
<wgt id='1005'> +5.8209335e+04 </wgt>
<wgt id='1006'> +4.3550515e+04 </wgt>
<wgt id='1007'> +9.0474495e+04 </wgt>
<wgt id='1008'> +8.9415922e+04 </wgt>
<wgt id='1009'> +9.1799154e+04 </wgt>
<wgt id='1010'> +7.4519530e+04 </wgt>
<wgt id='1011'> +7.5150401e+04 </wgt>
<wgt id='1012'> +7.4594807e+04 </wgt>
<wgt id='1013'> +7.5307854e+04 </wgt>
<wgt id='1014'> +7.3121024e+04 </wgt>
<wgt id='1015'> +7.6057884e+04 </wgt>
<wgt id='1016'> +7.3958326e+04 </wgt>
<wgt id='1017'> +7.4282603e+04 </wgt>
<wgt id='1018'> +7.5590007e+04 </wgt>
<wgt id='1019'> +7.3360886e+04 </wgt>
<wgt id='1020'> +7.5537531e+04 </wgt>
<wgt id='1021'> +7.4496583e+04 </wgt>
<wgt id='1022'> +7.3559927e+04 </wgt>
<wgt id='1023'> +7.3675009e+04 </wgt>
<wgt id='1024'> +7.4027215e+04 </wgt>
<wgt id='1025'> +7.2451754e+04 </wgt>
<wgt id='1026'> +7.5155964e+04 </wgt>
<wgt id='1027'> +7.4402417e+04 </wgt>
<wgt id='1028'> +7.6360207e+04 </wgt>
<wgt id='1029'> +7.4810169e+04 </wgt>
<wgt id='1030'> +7.4491171e+04 </wgt>
<wgt id='1031'> +7.5025097e+04 </wgt>
<wgt id='1032'> +7.3402232e+04 </wgt>
<wgt id='1033'> +7.5625309e+04 </wgt>
<wgt id='1034'> +7.5848125e+04 </wgt>
<wgt id='1035'> +7.5113717e+04 </wgt>
<wgt id='1036'> +7.4529269e+04 </wgt>
<wgt id='1037'> +7.3708163e+04 </wgt>
<wgt id='1038'> +7.4214936e+04 </wgt>
<wgt id='1039'> +7.4592297e+04 </wgt>
<wgt id='1040'> +7.4103226e+04 </wgt>
<wgt id='1041'> +7.4079396e+04 </wgt>
<wgt id='1042'> +7.4768905e+04 </wgt>
<wgt id='1043'> +7.4438314e+04 </wgt>
<wgt id='1044'> +7.4638550e+04 </wgt>
<wgt id='1045'> +7.4474903e+04 </wgt>
<wgt id='1046'> +7.4446822e+04 </wgt>
<wgt id='1047'> +7.4494795e+04 </wgt>
<wgt id='1048'> +7.4179111e+04 </wgt>
<wgt id='1049'> +7.4245844e+04 </wgt>
<wgt id='1050'> +7.4372538e+04 </wgt>
<wgt id='1051'> +7.4334873e+04 </wgt>
<wgt id='1052'> +7.4347492e+04 </wgt>
<wgt id='1053'> +7.5072407e+04 </wgt>
<wgt id='1054'> +7.4483338e+04 </wgt>
<wgt id='1055'> +7.4399943e+04 </wgt>
<wgt id='1056'> +7.4341051e+04 </wgt>
<wgt id='1057'> +7.4593982e+04 </wgt>
<wgt id='1058'> +7.4298608e+04 </wgt>
<wgt id='1059'> +7.4600900e+04 </wgt>
<wgt id='1060'> +7.4791027e+04 </wgt>
<wgt id='1061'> +7.4736512e+04 </wgt>
<wgt id='1062'> +7.4529948e+04 </wgt>
<wgt id='1063'> +7.4951289e+04 </wgt>
<wgt id='1064'> +7.4552455e+04 </wgt>
<wgt id='1065'> +7.4552280e+04 </wgt>
<wgt id='1066'> +7.3807822e+04 </wgt>
<wgt id='1067'> +7.4518860e+04 </wgt>
<wgt id='1068'> +7.4512060e+04 </wgt>
<wgt id='1069'> +7.4244064e+04 </wgt>
<wgt id='1070'> +7.4355354e+04 </wgt>
<wgt id='1071'> +7.4531848e+04 </wgt>
<wgt id='1072'> +7.4432238e+04 </wgt>
<wgt id='1073'> +7.4480716e+04 </wgt>
<wgt id='1074'> +7.4368742e+04 </wgt>
<wgt id='1075'> +7.4423747e+04 </wgt>
<wgt id='1076'> +7.4473790e+04 </wgt>
<wgt id='1077'> +7.4423714e+04 </wgt>
<wgt id='1078'> +7.4603818e+04 </wgt>
<wgt id='1079'> +7.4334359e+04 </wgt>
<wgt id='1080'> +7.4263799e+04 </wgt>
<wgt id='1081'> +7.4342541e+04 </wgt>
<wgt id='1082'> +7.4621910e+04 </wgt>
<wgt id='1083'> +7.4148074e+04 </wgt>
<wgt id='1084'> +7.4463173e+04 </wgt>
<wgt id='1085'> +7.4250824e+04 </wgt>
<wgt id='1086'> +7.4484149e+04 </wgt>
<wgt id='1087'> +7.4655349e+04 </wgt>
<wgt id='1088'> +7.4376466e+04 </wgt>
<wgt id='1089'> +7.4620295e+04 </wgt>
<wgt id='1090'> +7.4644963e+04 </wgt>
<wgt id='1091'> +7.4584139e+04 </wgt>
<wgt id='1092'> +7.4514743e+04 </wgt>
<wgt id='1093'> +7.4350234e+04 </wgt>
<wgt id='1094'> +7.4483986e+04 </wgt>
<wgt id='1095'> +7.4396796e+04 </wgt>
<wgt id='1096'> +7.4638728e+04 </wgt>
<wgt id='1097'> +7.4403702e+04 </wgt>
<wgt id='1098'> +7.4666617e+04 </wgt>
<wgt id='1099'> +7.4522223e+04 </wgt>
<wgt id='1100'> +7.4573903e+04 </wgt>
<wgt id='1101'> +7.4465402e+04 </wgt>
<wgt id='1102'> +7.4393041e+04 </wgt>
<wgt id='1103'> +7.4552230e+04 </wgt>
<wgt id='1104'> +7.4441905e+04 </wgt>
<wgt id='1105'> +7.4388211e+04 </wgt>
<wgt id='1106'> +7.4345291e+04 </wgt>
<wgt id='1107'> +7.4409898e+04 </wgt>
<wgt id='1108'> +7.4559471e+04 </wgt>
<wgt id='1109'> +7.4532059e+04 </wgt>
<wgt id='1110'> +7.4519525e+04 </wgt>
<wgt id='1111'> +7.1232607e+04 </wgt>
<wgt id='1112'> +7.5839343e+04 </wgt>
<wgt id='1113'> +7.4519525e+04 </wgt>
<wgt id='1114'> +5.9577667e+04 </wgt>
<wgt id='1115'> +7.6606278e+04 </wgt>
<wgt id='1116'> +8.1462104e+04 </wgt>
<wgt id='1117'> +7.5208464e+04 </wgt>
<wgt id='1118'> +7.4267875e+04 </wgt>
<wgt id='1119'> +6.1031557e+04 </wgt>
<wgt id='1120'> +7.5243812e+04 </wgt>
<wgt id='1121'> +8.1978102e+04 </wgt>
<wgt id='1122'> +8.1465712e+04 </wgt>
<wgt id='1123'> +7.3925425e+04 </wgt>
<wgt id='1124'> +7.1601579e+04 </wgt>
<wgt id='1125'> +7.8256989e+04 </wgt>
<wgt id='1126'> +7.8912131e+04 </wgt>
<wgt id='1127'> +7.1104863e+04 </wgt>
<wgt id='1128'> +7.8551960e+04 </wgt>
<wgt id='1129'> +7.6572599e+04 </wgt>
<wgt id='1130'> +6.5748086e+04 </wgt>
<wgt id='1131'> +7.8999475e+04 </wgt>
<wgt id='1132'> +7.6501270e+04 </wgt>
<wgt id='1133'> +8.4188859e+04 </wgt>
<wgt id='1134'> +7.7818915e+04 </wgt>
<wgt id='1135'> +7.3723472e+04 </wgt>
<wgt id='1136'> +7.2115391e+04 </wgt>
<wgt id='1137'> +7.8406646e+04 </wgt>
<wgt id='1138'> +8.0556925e+04 </wgt>
<wgt id='1139'> +7.1737317e+04 </wgt>
<wgt id='1140'> +6.4811183e+04 </wgt>
<wgt id='1141'> +7.6211613e+04 </wgt>
<wgt id='1142'> +7.1914618e+04 </wgt>
<wgt id='1143'> +6.8270575e+04 </wgt>
<wgt id='1144'> +6.5237015e+04 </wgt>
<wgt id='1145'> +7.8990750e+04 </wgt>
<wgt id='1146'> +7.1442829e+04 </wgt>
<wgt id='1147'> +7.6715168e+04 </wgt>
<wgt id='1148'> +6.9792358e+04 </wgt>
<wgt id='1149'> +7.4422255e+04 </wgt>
<wgt id='1150'> +7.9787796e+04 </wgt>
<wgt id='1151'> +7.2811777e+04 </wgt>
<wgt id='1152'> +7.6119826e+04 </wgt>
<wgt id='1153'> +7.4927429e+04 </wgt>
<wgt id='1154'> +7.5631987e+04 </wgt>
<wgt id='1155'> +7.2527509e+04 </wgt>
<wgt id='1156'> +6.8698892e+04 </wgt>
<wgt id='1157'> +6.6838320e+04 </wgt>
<wgt id='1158'> +7.7688484e+04 </wgt>
<wgt id='1159'> +6.8834615e+04 </wgt>
<wgt id='1160'> +7.3562270e+04 </wgt>
<wgt id='1161'> +7.6641184e+04 </wgt>
<wgt id='1162'> +6.9177396e+04 </wgt>
<wgt id='1163'> +6.7247748e+04 </wgt>
<wgt id='1164'> +7.4320211e+04 </wgt>
<wgt id='1165'> +7.8806132e+04 </wgt>
<wgt id='1166'> +7.0330867e+04 </wgt>
<wgt id='1167'> +7.0505614e+04 </wgt>
<wgt id='1168'> +7.4243749e+04 </wgt>
<wgt id='1169'> +7.6262570e+04 </wgt>
<wgt id='1170'> +7.2152735e+04 </wgt>
<wgt id='1171'> +7.9505820e+04 </wgt>
<wgt id='1172'> +7.3432639e+04 </wgt>
<wgt id='1173'> +6.9739091e+04 </wgt>
<wgt id='1174'> +6.9651261e+04 </wgt>
<wgt id='1175'> +7.8626945e+04 </wgt>
<wgt id='1176'> +7.0474316e+04 </wgt>
<wgt id='1177'> +7.8957096e+04 </wgt>
<wgt id='1178'> +7.2781912e+04 </wgt>
<wgt id='1179'> +7.1785685e+04 </wgt>
<wgt id='1180'> +7.2562941e+04 </wgt>
<wgt id='1181'> +7.0229431e+04 </wgt>
<wgt id='1182'> +7.4657509e+04 </wgt>
<wgt id='1183'> +7.2780659e+04 </wgt>
<wgt id='1184'> +7.4677864e+04 </wgt>
<wgt id='1185'> +7.6295461e+04 </wgt>
<wgt id='1186'> +8.4152096e+04 </wgt>
<wgt id='1187'> +8.4144739e+04 </wgt>
<wgt id='1188'> +7.7913918e+04 </wgt>
<wgt id='1189'> +6.5517329e+04 </wgt>
<wgt id='1190'> +8.3692074e+04 </wgt>
<wgt id='1191'> +7.5373533e+04 </wgt>
<wgt id='1192'> +7.6636179e+04 </wgt>
<wgt id='1193'> +6.7708989e+04 </wgt>
<wgt id='1194'> +7.4478010e+04 </wgt>
<wgt id='1195'> +7.6572599e+04 </wgt>
<wgt id='1196'> +7.1252624e+04 </wgt>
<wgt id='1197'> +7.9743968e+04 </wgt>
<wgt id='1198'> +7.7626893e+04 </wgt>
<wgt id='1199'> +6.8085989e+04 </wgt>
<wgt id='1200'> +8.2320452e+04 </wgt>
<wgt id='1201'> +6.6056118e+04 </wgt>
<wgt id='1202'> +8.5183168e+04 </wgt>
<wgt id='1203'> +7.5659732e+04 </wgt>
<wgt id='1204'> +7.7467045e+04 </wgt>
<wgt id='1205'> +8.3561418e+04 </wgt>
<wgt id='1206'> +7.6287980e+04 </wgt>
<wgt id='1207'> +7.3297377e+04 </wgt>
<wgt id='1208'> +8.1264236e+04 </wgt>
<wgt id='1209'> +7.6574175e+04 </wgt>
<wgt id='1210'> +6.4813869e+04 </wgt>
<wgt id='1211'> +7.5122221e+04 </wgt>
<wgt id='1212'> +7.9032900e+04 </wgt>
<wgt id='1213'> +7.7972691e+04 </wgt>
<wgt id='1214'> +7.4095411e+04 </wgt>
<wgt id='1215'> +6.0006732e+04 </wgt>
<wgt id='1216'> +6.3235148e+04 </wgt>
<wgt id='1217'> +6.6183535e+04 </wgt>
<wgt id='1218'> +6.8575299e+04 </wgt>
<wgt id='1219'> +7.2344711e+04 </wgt>
<wgt id='1220'> +7.4781398e+04 </wgt>
<wgt id='1221'> +7.9068611e+04 </wgt>
<wgt id='1222'> +8.1549058e+04 </wgt>
<wgt id='1223'> +6.9068677e+04 </wgt>
<wgt id='1224'> +6.9542390e+04 </wgt>
<wgt id='1225'> +6.8424408e+04 </wgt>
<wgt id='1226'> +6.9454975e+04 </wgt>
<wgt id='1227'> +6.7098142e+04 </wgt>
<wgt id='1228'> +6.9028137e+04 </wgt>
<wgt id='1229'> +6.9834600e+04 </wgt>
<wgt id='1230'> +6.8625203e+04 </wgt>
<wgt id='1231'> +6.9354405e+04 </wgt>
<wgt id='1232'> +6.8197690e+04 </wgt>
<wgt id='1233'> +7.1179052e+04 </wgt>
<wgt id='1234'> +6.9721107e+04 </wgt>
<wgt id='1235'> +6.8792065e+04 </wgt>
<wgt id='1236'> +6.8233282e+04 </wgt>
<wgt id='1237'> +6.8225308e+04 </wgt>
<wgt id='1238'> +7.0782349e+04 </wgt>
<wgt id='1239'> +6.7817007e+04 </wgt>
<wgt id='1240'> +6.9888916e+04 </wgt>
<wgt id='1241'> +6.8591076e+04 </wgt>
<wgt id='1242'> +6.8842077e+04 </wgt>
<wgt id='1243'> +6.9750527e+04 </wgt>
<wgt id='1244'> +6.7754169e+04 </wgt>
<wgt id='1245'> +6.8955789e+04 </wgt>
<wgt id='1246'> +6.9168710e+04 </wgt>
<wgt id='1247'> +6.8507057e+04 </wgt>
<wgt id='1248'> +6.9581749e+04 </wgt>
<wgt id='1249'> +6.9121308e+04 </wgt>
<wgt id='1250'> +6.8890602e+04 </wgt>
<wgt id='1251'> +6.9212880e+04 </wgt>
<wgt id='1252'> +6.8425696e+04 </wgt>
<wgt id='1253'> +6.8978523e+04 </wgt>
<wgt id='1254'> +6.9106722e+04 </wgt>
<wgt id='1255'> +6.9187187e+04 </wgt>
<wgt id='1256'> +6.8921052e+04 </wgt>
<wgt id='1257'> +6.8667194e+04 </wgt>
<wgt id='1258'> +6.8908964e+04 </wgt>
<wgt id='1259'> +6.9018343e+04 </wgt>
<wgt id='1260'> +6.9063961e+04 </wgt>
<wgt id='1261'> +6.8944574e+04 </wgt>
<wgt id='1262'> +6.9387038e+04 </wgt>
<wgt id='1263'> +6.8938226e+04 </wgt>
<wgt id='1264'> +6.9742834e+04 </wgt>
<wgt id='1265'> +6.9284833e+04 </wgt>
<wgt id='1266'> +6.9106096e+04 </wgt>
<wgt id='1267'> +6.9306686e+04 </wgt>
<wgt id='1268'> +6.8825114e+04 </wgt>
<wgt id='1269'> +6.8961300e+04 </wgt>
<wgt id='1270'> +6.9253907e+04 </wgt>
<wgt id='1271'> +6.9243541e+04 </wgt>
<wgt id='1272'> +6.8592208e+04 </wgt>
<wgt id='1273'> +6.8805891e+04 </wgt>
<wgt id='1274'> +6.8733989e+04 </wgt>
<wgt id='1275'> +6.9455688e+04 </wgt>
<wgt id='1276'> +6.9202836e+04 </wgt>
<wgt id='1277'> +6.9274694e+04 </wgt>
<wgt id='1278'> +6.9192119e+04 </wgt>
<wgt id='1279'> +6.8675188e+04 </wgt>
<wgt id='1280'> +6.9233816e+04 </wgt>
<wgt id='1281'> +6.9166057e+04 </wgt>
<wgt id='1282'> +6.9109621e+04 </wgt>
<wgt id='1283'> +6.8972943e+04 </wgt>
<wgt id='1284'> +6.8783467e+04 </wgt>
<wgt id='1285'> +6.8825538e+04 </wgt>
<wgt id='1286'> +6.8960551e+04 </wgt>
<wgt id='1287'> +6.9054154e+04 </wgt>
<wgt id='1288'> +6.9030765e+04 </wgt>
<wgt id='1289'> +6.8698680e+04 </wgt>
<wgt id='1290'> +6.9389034e+04 </wgt>
<wgt id='1291'> +6.9253326e+04 </wgt>
<wgt id='1292'> +6.9137222e+04 </wgt>
<wgt id='1293'> +6.9237180e+04 </wgt>
<wgt id='1294'> +6.8916069e+04 </wgt>
<wgt id='1295'> +6.9243240e+04 </wgt>
<wgt id='1296'> +6.9031304e+04 </wgt>
<wgt id='1297'> +6.8750402e+04 </wgt>
<wgt id='1298'> +6.9080842e+04 </wgt>
<wgt id='1299'> +6.8838439e+04 </wgt>
<wgt id='1300'> +6.9035434e+04 </wgt>
<wgt id='1301'> +6.9032618e+04 </wgt>
<wgt id='1302'> +6.9197777e+04 </wgt>
<wgt id='1303'> +6.8949926e+04 </wgt>
<wgt id='1304'> +6.9181644e+04 </wgt>
<wgt id='1305'> +6.9282917e+04 </wgt>
<wgt id='1306'> +6.9235362e+04 </wgt>
<wgt id='1307'> +6.8935283e+04 </wgt>
<wgt id='1308'> +6.8829379e+04 </wgt>
<wgt id='1309'> +6.9061295e+04 </wgt>
<wgt id='1310'> +6.9234615e+04 </wgt>
<wgt id='1311'> +6.8985858e+04 </wgt>
<wgt id='1312'> +6.9026683e+04 </wgt>
<wgt id='1313'> +6.9027918e+04 </wgt>
<wgt id='1314'> +6.9226058e+04 </wgt>
<wgt id='1315'> +6.9117113e+04 </wgt>
<wgt id='1316'> +6.8873415e+04 </wgt>
<wgt id='1317'> +6.9237767e+04 </wgt>
<wgt id='1318'> +6.9245630e+04 </wgt>
<wgt id='1319'> +6.8894270e+04 </wgt>
<wgt id='1320'> +6.8992614e+04 </wgt>
<wgt id='1321'> +6.9124420e+04 </wgt>
<wgt id='1322'> +6.9062719e+04 </wgt>
<wgt id='1323'> +6.8977376e+04 </wgt>
<wgt id='1324'> +6.6467780e+04 </wgt>
<wgt id='1325'> +7.1238516e+04 </wgt>
<wgt id='1326'> +8.0213401e+04 </wgt>
<wgt id='1327'> +7.7190430e+04 </wgt>
<wgt id='1328'> +7.7577473e+04 </wgt>
<wgt id='1329'> +7.6240918e+04 </wgt>
<wgt id='1330'> +7.7550717e+04 </wgt>
<wgt id='1331'> +7.5348041e+04 </wgt>
<wgt id='1332'> +7.8245604e+04 </wgt>
<wgt id='1333'> +7.6288465e+04 </wgt>
<wgt id='1334'> +7.6199259e+04 </wgt>
<wgt id='1335'> +8.1070361e+04 </wgt>
<wgt id='1336'> +7.5295735e+04 </wgt>
<wgt id='1337'> +7.8837040e+04 </wgt>
<wgt id='1338'> +7.7782176e+04 </wgt>
<wgt id='1339'> +7.8994276e+04 </wgt>
<wgt id='1340'> +7.9027443e+04 </wgt>
<wgt id='1341'> +8.1606172e+04 </wgt>
<wgt id='1342'> +7.6463519e+04 </wgt>
<wgt id='1343'> +7.8640117e+04 </wgt>
<wgt id='1344'> +7.5177805e+04 </wgt>
<wgt id='1345'> +7.7777662e+04 </wgt>
<wgt id='1346'> +8.2491268e+04 </wgt>
<wgt id='1347'> +7.8105196e+04 </wgt>
<wgt id='1348'> +7.5083192e+04 </wgt>
<wgt id='1349'> +7.7923784e+04 </wgt>
<wgt id='1350'> +7.6467531e+04 </wgt>
<wgt id='1351'> +7.7670966e+04 </wgt>
<wgt id='1352'> +7.7742385e+04 </wgt>
<wgt id='1353'> +7.4396087e+04 </wgt>
<wgt id='1354'> +7.6370429e+04 </wgt>
<wgt id='1355'> +7.8444635e+04 </wgt>
<wgt id='1356'> +7.7697260e+04 </wgt>
<wgt id='1357'> +7.7051064e+04 </wgt>
<wgt id='1358'> +7.5560727e+04 </wgt>
<wgt id='1359'> +7.8705906e+04 </wgt>
<wgt id='1360'> +7.6956465e+04 </wgt>
<wgt id='1361'> +7.4387072e+04 </wgt>
<wgt id='1362'> +7.7549483e+04 </wgt>
<wgt id='1363'> +7.7410862e+04 </wgt>
<wgt id='1364'> +7.8378133e+04 </wgt>
<wgt id='1365'> +7.5463324e+04 </wgt>
<wgt id='1366'> +7.6915151e+04 </wgt>
<wgt id='1367'> +7.6167767e+04 </wgt>
<wgt id='1368'> +7.8053397e+04 </wgt>
<wgt id='1369'> +7.5652999e+04 </wgt>
<wgt id='1370'> +7.8006732e+04 </wgt>
<wgt id='1371'> +8.0601871e+04 </wgt>
<wgt id='1372'> +7.6473295e+04 </wgt>
<wgt id='1373'> +8.1050581e+04 </wgt>
<wgt id='1374'> +7.6644404e+04 </wgt>
<wgt id='1375'> +7.6647529e+04 </wgt>
<wgt id='1376'> +7.6344206e+04 </wgt>
<wgt id='1377'> +7.9592198e+04 </wgt>
<wgt id='1378'> +8.1003935e+04 </wgt>
<wgt id='1379'> +7.7949304e+04 </wgt>
<wgt id='1380'> +7.5899860e+04 </wgt>
<wgt id='1381'> +7.6432870e+04 </wgt>
<wgt id='1382'> +7.9738614e+04 </wgt>
<wgt id='1383'> +7.7748608e+04 </wgt>
<wgt id='1384'> +7.5822664e+04 </wgt>
<wgt id='1385'> +8.1477317e+04 </wgt>
<wgt id='1386'> +8.0006923e+04 </wgt>
<wgt id='1387'> +7.8351917e+04 </wgt>
<wgt id='1388'> +7.5628330e+04 </wgt>
<wgt id='1389'> +7.6756759e+04 </wgt>
<wgt id='1390'> +8.0241579e+04 </wgt>
<wgt id='1391'> +7.5154282e+04 </wgt>
<wgt id='1392'> +7.8696384e+04 </wgt>
<wgt id='1393'> +8.3925533e+04 </wgt>
<wgt id='1394'> +7.5463324e+04 </wgt>
<wgt id='1395'> +7.7771588e+04 </wgt>
<wgt id='1396'> +7.6396232e+04 </wgt>
<wgt id='1397'> +7.7279445e+04 </wgt>
<wgt id='1398'> +7.8385425e+04 </wgt>
<wgt id='1399'> +7.8133207e+04 </wgt>
<wgt id='1400'> +7.6346318e+04 </wgt>
<wgt id='1401'> +7.9480165e+04 </wgt>
<wgt id='1402'> +7.6100785e+04 </wgt>
<wgt id='1403'> +7.5483599e+04 </wgt>
<wgt id='1404'> +7.9092670e+04 </wgt>
<wgt id='1405'> +7.7639186e+04 </wgt>
<wgt id='1406'> +7.6301455e+04 </wgt>
<wgt id='1407'> +7.5246517e+04 </wgt>
<wgt id='1408'> +7.6655104e+04 </wgt>
<wgt id='1409'> +7.4406422e+04 </wgt>
<wgt id='1410'> +7.5213791e+04 </wgt>
<wgt id='1411'> +7.7501975e+04 </wgt>
<wgt id='1412'> +7.6735168e+04 </wgt>
<wgt id='1413'> +7.8392091e+04 </wgt>
<wgt id='1414'> +7.9396765e+04 </wgt>
<wgt id='1415'> +7.7533246e+04 </wgt>
<wgt id='1416'> +7.9886095e+04 </wgt>
<wgt id='1417'> +7.8879839e+04 </wgt>
<wgt id='1418'> +7.5739078e+04 </wgt>
<wgt id='1419'> +7.8885249e+04 </wgt>
<wgt id='1420'> +8.0441796e+04 </wgt>
<wgt id='1421'> +7.3867925e+04 </wgt>
<wgt id='1422'> +7.8752589e+04 </wgt>
<wgt id='1423'> +7.8323195e+04 </wgt>
<wgt id='1424'> +7.8651257e+04 </wgt>
<wgt id='1425'> +7.6517470e+04 </wgt>
<wgt id='1426'> +7.7459425e+04 </wgt>
<wgt id='1427'> +7.8298972e+04 </wgt>
<wgt id='1428'> +7.5559740e+04 </wgt>
<wgt id='1429'> +7.6213864e+04 </wgt>
<wgt id='1430'> +7.9937478e+04 </wgt>
<wgt id='1431'> +7.7924108e+04 </wgt>
<wgt id='1432'> +7.7540518e+04 </wgt>
<wgt id='1433'> +7.8640385e+04 </wgt>
<wgt id='1434'> +7.7956249e+04 </wgt>
<wgt id='1435'> +7.8234972e+04 </wgt>
<wgt id='1436'> +7.9108878e+04 </wgt>
<wgt id='1437'> +7.7905718e+04 </wgt>
<wgt id='1438'> +7.8246926e+04 </wgt>
<wgt id='1439'> +7.8095251e+04 </wgt>
<wgt id='1440'> +7.8249170e+04 </wgt>
<wgt id='1441'> +7.8016395e+04 </wgt>
<wgt id='1442'> +7.8112158e+04 </wgt>
<wgt id='1443'> +7.8008545e+04 </wgt>
<wgt id='1444'> +7.8194982e+04 </wgt>
<wgt id='1445'> +7.7891790e+04 </wgt>
<wgt id='1446'> +7.8653094e+04 </wgt>
<wgt id='1447'> +7.7921348e+04 </wgt>
<wgt id='1448'> +7.8186375e+04 </wgt>
<wgt id='1449'> +7.7772928e+04 </wgt>
<wgt id='1450'> +7.7919942e+04 </wgt>
<wgt id='1451'> +7.8081945e+04 </wgt>
<wgt id='1452'> +7.7770950e+04 </wgt>
<wgt id='1453'> +7.8138631e+04 </wgt>
<wgt id='1454'> +7.7509324e+04 </wgt>
<wgt id='1455'> +7.7925888e+04 </wgt>
<wgt id='1456'> +7.8109869e+04 </wgt>
<wgt id='1457'> +7.7939127e+04 </wgt>
<wgt id='1458'> +7.8114539e+04 </wgt>
<wgt id='1459'> +7.7938025e+04 </wgt>
<wgt id='1460'> +7.7765508e+04 </wgt>
<wgt id='1461'> +7.7904198e+04 </wgt>
<wgt id='1462'> +7.8111144e+04 </wgt>
<wgt id='1463'> +7.8075375e+04 </wgt>
<wgt id='1464'> +7.8058578e+04 </wgt>
<wgt id='1465'> +7.7866972e+04 </wgt>
<wgt id='1466'> +7.7848932e+04 </wgt>
<wgt id='1467'> +7.7985840e+04 </wgt>
<wgt id='1468'> +7.7950810e+04 </wgt>
<wgt id='1469'> +7.7890920e+04 </wgt>
<wgt id='1470'> +7.8099865e+04 </wgt>
<wgt id='1471'> +7.7809840e+04 </wgt>
<wgt id='1472'> +7.8001661e+04 </wgt>
<wgt id='1473'> +7.7991677e+04 </wgt>
<wgt id='1474'> +7.7962773e+04 </wgt>
<wgt id='1475'> +7.7950209e+04 </wgt>
<wgt id='1476'> +7.7810654e+04 </wgt>
<wgt id='1477'> +7.7943388e+04 </wgt>
<wgt id='1478'> +7.7990620e+04 </wgt>
<wgt id='1479'> +7.7869730e+04 </wgt>
<wgt id='1480'> +7.7917890e+04 </wgt>
<wgt id='1481'> +7.7992259e+04 </wgt>
<wgt id='1482'> +7.6213864e+04 </wgt>
<wgt id='1483'> +7.9937478e+04 </wgt>
<wgt id='1484'> +8.0706331e+04 </wgt>
<wgt id='1485'> +7.9773990e+04 </wgt>
<wgt id='1486'> +7.9841523e+04 </wgt>
<wgt id='1487'> +8.1994370e+04 </wgt>
<wgt id='1488'> +8.3065518e+04 </wgt>
<wgt id='1489'> +8.0136775e+04 </wgt>
<wgt id='1490'> +8.2264840e+04 </wgt>
<wgt id='1491'> +8.2970584e+04 </wgt>
<wgt id='1492'> +8.2312871e+04 </wgt>
<wgt id='1493'> +7.9736137e+04 </wgt>
<wgt id='1494'> +7.8900807e+04 </wgt>
<wgt id='1495'> +8.4477432e+04 </wgt>
<wgt id='1496'> +8.2786884e+04 </wgt>
<wgt id='1497'> +8.5235657e+04 </wgt>
<wgt id='1498'> +7.8909627e+04 </wgt>
<wgt id='1499'> +7.9481438e+04 </wgt>
<wgt id='1500'> +7.9165500e+04 </wgt>
<wgt id='1501'> +8.3549281e+04 </wgt>
<wgt id='1502'> +7.9746405e+04 </wgt>
<wgt id='1503'> +8.2975523e+04 </wgt>
<wgt id='1504'> +8.0848086e+04 </wgt>
<wgt id='1505'> +7.8352840e+04 </wgt>
<wgt id='1506'> +8.2926611e+04 </wgt>
<wgt id='1507'> +8.0394008e+04 </wgt>
<wgt id='1508'> +8.3918532e+04 </wgt>
<wgt id='1509'> +7.7898145e+04 </wgt>
<wgt id='1510'> +8.1677206e+04 </wgt>
<wgt id='1511'> +7.9404196e+04 </wgt>
<wgt id='1512'> +8.1136843e+04 </wgt>
<wgt id='1513'> +8.1764069e+04 </wgt>
<wgt id='1514'> +8.2967673e+04 </wgt>
<wgt id='1515'> +8.3338235e+04 </wgt>
<wgt id='1516'> +8.2997402e+04 </wgt>
<wgt id='1517'> +7.9116518e+04 </wgt>
<wgt id='1518'> +8.0402021e+04 </wgt>
<wgt id='1519'> +7.9717966e+04 </wgt>
<wgt id='1520'> +7.9126859e+04 </wgt>
<wgt id='1521'> +8.2758489e+04 </wgt>
<wgt id='1522'> +8.0701762e+04 </wgt>
<wgt id='1523'> +8.0908754e+04 </wgt>
<wgt id='1524'> +7.9719876e+04 </wgt>
<wgt id='1525'> +7.7929005e+04 </wgt>
<wgt id='1526'> +7.7677918e+04 </wgt>
<wgt id='1527'> +8.0721586e+04 </wgt>
<wgt id='1528'> +7.8780842e+04 </wgt>
<wgt id='1529'> +8.1011199e+04 </wgt>
<wgt id='1530'> +7.8409866e+04 </wgt>
<wgt id='1531'> +8.2377788e+04 </wgt>
<wgt id='1532'> +8.1053318e+04 </wgt>
<wgt id='1533'> +7.9163777e+04 </wgt>
<wgt id='1534'> +8.0147083e+04 </wgt>
<wgt id='1535'> +8.2948116e+04 </wgt>
<wgt id='1536'> +7.9564738e+04 </wgt>
<wgt id='1537'> +8.0526843e+04 </wgt>
<wgt id='1538'> +8.0856298e+04 </wgt>
<wgt id='1539'> +8.0177775e+04 </wgt>
<wgt id='1540'> +8.1881349e+04 </wgt>
<wgt id='1541'> +7.8319860e+04 </wgt>
<wgt id='1542'> +8.1310543e+04 </wgt>
<wgt id='1543'> +7.9698425e+04 </wgt>
<wgt id='1544'> +7.9348128e+04 </wgt>
<wgt id='1545'> +7.8229837e+04 </wgt>
<wgt id='1546'> +7.9095113e+04 </wgt>
<wgt id='1547'> +7.8972044e+04 </wgt>
<wgt id='1548'> +8.1125990e+04 </wgt>
<wgt id='1549'> +8.0896461e+04 </wgt>
<wgt id='1550'> +7.9449677e+04 </wgt>
<wgt id='1551'> +8.0968355e+04 </wgt>
<wgt id='1552'> +7.6932813e+04 </wgt>
<wgt id='1553'> +8.0781404e+04 </wgt>
<wgt id='1554'> +8.0511822e+04 </wgt>
<wgt id='1555'> +8.3242144e+04 </wgt>
<wgt id='1556'> +8.1879395e+04 </wgt>
<wgt id='1557'> +8.1278615e+04 </wgt>
<wgt id='1558'> +7.8225893e+04 </wgt>
<wgt id='1559'> +7.9616289e+04 </wgt>
<wgt id='1560'> +7.9791346e+04 </wgt>
<wgt id='1561'> +7.9082631e+04 </wgt>
<wgt id='1562'> +7.9807994e+04 </wgt>
<wgt id='1563'> +8.3030982e+04 </wgt>
<wgt id='1564'> +8.0752980e+04 </wgt>
<wgt id='1565'> +8.0858786e+04 </wgt>
<wgt id='1566'> +8.1351318e+04 </wgt>
<wgt id='1567'> +8.1630274e+04 </wgt>
<wgt id='1568'> +7.9669010e+04 </wgt>
<wgt id='1569'> +8.1477887e+04 </wgt>
<wgt id='1570'> +7.8623109e+04 </wgt>
<wgt id='1571'> +8.0327099e+04 </wgt>
<wgt id='1572'> +8.3259754e+04 </wgt>
<wgt id='1573'> +8.0515967e+04 </wgt>
<wgt id='1574'> +8.0948844e+04 </wgt>
<wgt id='1575'> +8.1220482e+04 </wgt>
<wgt id='1576'> +7.9797914e+04 </wgt>
<wgt id='1577'> +8.2523580e+04 </wgt>
<wgt id='1578'> +7.9425134e+04 </wgt>
<wgt id='1579'> +8.1682345e+04 </wgt>
<wgt id='1580'> +7.9962853e+04 </wgt>
<wgt id='1581'> +7.8583767e+04 </wgt>
<wgt id='1582'> +8.1819967e+04 </wgt>
<wgt id='1583'> +7.9563694e+04 </wgt>
<wgt id='1584'> +8.4670096e+04 </wgt>
<wgt id='1585'> +7.5886852e+04 </wgt>
<wgt id='1586'> +6.4462134e+04 </wgt>
<wgt id='1587'> +7.4719087e+04 </wgt>
<wgt id='1588'> +7.6213864e+04 </wgt>
<wgt id='1589'> +7.7055874e+04 </wgt>
<wgt id='1590'> +7.9242607e+04 </wgt>
<wgt id='1591'> +7.9937478e+04 </wgt>
<wgt id='1592'> +8.1909635e+04 </wgt>
<wgt id='1593'> +7.9023058e+04 </wgt>
<wgt id='1594'> +7.7795191e+04 </wgt>
<wgt id='1595'> +7.9843793e+04 </wgt>
<wgt id='1596'> +8.1633053e+04 </wgt>
<wgt id='1597'> +7.4927971e+04 </wgt>
<wgt id='1598'> +8.4948993e+04 </wgt>
<wgt id='1599'> +7.5614054e+04 </wgt>
<wgt id='1600'> +8.5076078e+04 </wgt>
<wgt id='1601'> +7.4252080e+04 </wgt>
<wgt id='1602'> +8.1460527e+04 </wgt>
<wgt id='1603'> +7.7387403e+04 </wgt>
<wgt id='1604'> +7.7693577e+04 </wgt>
<wgt id='1605'> +8.1549872e+04 </wgt>
<wgt id='1606'> +7.6938936e+04 </wgt>
<wgt id='1607'> +8.0070834e+04 </wgt>
<wgt id='1608'> +8.1213691e+04 </wgt>
<wgt id='1609'> +7.5223253e+04 </wgt>
<wgt id='1610'> +7.9766727e+04 </wgt>
<wgt id='1611'> +7.8290658e+04 </wgt>
<wgt id='1612'> +7.8477559e+04 </wgt>
<wgt id='1613'> +7.9437045e+04 </wgt>
<wgt id='1614'> +7.7419701e+04 </wgt>
<wgt id='1615'> +8.2049049e+04 </wgt>
<wgt id='1616'> +8.0535205e+04 </wgt>
<wgt id='1617'> +7.6492447e+04 </wgt>
<wgt id='1618'> +7.8516850e+04 </wgt>
<wgt id='1619'> +8.0413458e+04 </wgt>
<wgt id='1620'> +7.6057872e+04 </wgt>
<wgt id='1621'> +8.2578145e+04 </wgt>
<wgt id='1622'> +7.6394658e+04 </wgt>
<wgt id='1623'> +8.1344410e+04 </wgt>
<wgt id='1624'> +7.9436002e+04 </wgt>
<wgt id='1625'> +7.5996508e+04 </wgt>
<wgt id='1626'> +7.7883610e+04 </wgt>
<wgt id='1627'> +8.0020019e+04 </wgt>
<wgt id='1628'> +7.4825168e+04 </wgt>
<wgt id='1629'> +8.3068936e+04 </wgt>
<wgt id='1630'> +7.4052102e+04 </wgt>
<wgt id='1631'> +8.4716448e+04 </wgt>
<wgt id='1632'> +7.4478727e+04 </wgt>
<wgt id='1633'> +8.5873370e+04 </wgt>
<wgt id='1634'> +7.8669835e+04 </wgt>
<wgt id='1635'> +7.9670623e+04 </wgt>
<wgt id='1636'> +8.4504453e+04 </wgt>
<wgt id='1637'> +7.6938445e+04 </wgt>
<wgt id='1638'> +7.8248224e+04 </wgt>
<wgt id='1639'> +7.9117620e+04 </wgt>
<wgt id='1640'> +7.4722240e+04 </wgt>
<wgt id='1641'> +8.2358387e+04 </wgt>
<wgt id='1642'> +8.4438426e+04 </wgt>
<wgt id='1643'> +7.5712088e+04 </wgt>
<wgt id='1644'> +7.5858790e+04 </wgt>
<wgt id='1645'> +8.3683820e+04 </wgt>
<wgt id='1646'> +8.2023794e+04 </wgt>
<wgt id='1647'> +7.6998878e+04 </wgt>
<wgt id='1648'> +7.8841028e+04 </wgt>
<wgt id='1649'> +7.9084957e+04 </wgt>
<wgt id='1650'> +7.9049482e+04 </wgt>
<wgt id='1651'> +7.9084051e+04 </wgt>
<wgt id='1652'> +7.6403090e+04 </wgt>
<wgt id='1653'> +7.7812936e+04 </wgt>
<wgt id='1654'> +8.0066120e+04 </wgt>
<wgt id='1655'> +8.0964072e+04 </wgt>
<wgt id='1656'> +8.5305909e+04 </wgt>
<wgt id='1657'> +8.5708465e+04 </wgt>
<wgt id='1658'> +8.4254197e+04 </wgt>
<wgt id='1659'> +8.5904344e+04 </wgt>
<wgt id='1660'> +8.4859965e+04 </wgt>
<wgt id='1661'> +8.4738646e+04 </wgt>
<wgt id='1662'> +8.4838048e+04 </wgt>
<wgt id='1663'> +8.5022651e+04 </wgt>
<wgt id='1664'> +8.4774208e+04 </wgt>
<wgt id='1665'> +8.4030327e+04 </wgt>
<wgt id='1666'> +8.5660269e+04 </wgt>
<wgt id='1667'> +8.6429222e+04 </wgt>
<wgt id='1668'> +8.4489656e+04 </wgt>
<wgt id='1669'> +8.5711699e+04 </wgt>
<wgt id='1670'> +8.5270336e+04 </wgt>
<wgt id='1671'> +8.4882987e+04 </wgt>
<wgt id='1672'> +8.5701253e+04 </wgt>
<wgt id='1673'> +8.4846329e+04 </wgt>
<wgt id='1674'> +8.5773595e+04 </wgt>
<wgt id='1675'> +8.4074281e+04 </wgt>
<wgt id='1676'> +8.5798524e+04 </wgt>
<wgt id='1677'> +8.6873869e+04 </wgt>
<wgt id='1678'> +8.3246625e+04 </wgt>
<wgt id='1679'> +8.5216060e+04 </wgt>
<wgt id='1680'> +8.7444103e+04 </wgt>
<wgt id='1681'> +8.4823892e+04 </wgt>
<wgt id='1682'> +8.4759847e+04 </wgt>
<wgt id='1683'> +8.3170371e+04 </wgt>
<wgt id='1684'> +8.7132583e+04 </wgt>
<wgt id='1685'> +8.5682399e+04 </wgt>
<wgt id='1686'> +8.4992089e+04 </wgt>
<wgt id='1687'> +8.2418779e+04 </wgt>
<wgt id='1688'> +8.9540933e+04 </wgt>
<wgt id='1689'> +8.3232818e+04 </wgt>
<wgt id='1690'> +8.8181333e+04 </wgt>
<wgt id='1691'> +8.3475143e+04 </wgt>
<wgt id='1692'> +8.6990121e+04 </wgt>
<wgt id='1693'> +7.8926196e+04 </wgt>
<wgt id='1694'> +9.4916374e+04 </wgt>
<wgt id='1695'> +8.6710137e+04 </wgt>
<wgt id='1696'> +8.4025874e+04 </wgt>
<wgt id='1697'> +8.3181673e+04 </wgt>
<wgt id='1698'> +8.8010816e+04 </wgt>
<wgt id='1699'> +8.7195160e+04 </wgt>
<wgt id='1700'> +8.1380431e+04 </wgt>
<wgt id='1701'> +8.9566028e+04 </wgt>
<wgt id='1702'> +8.2753118e+04 </wgt>
<wgt id='1703'> +8.6300827e+04 </wgt>
<wgt id='1704'> +8.4839632e+04 </wgt>
<wgt id='1705'> +8.3241822e+04 </wgt>
<wgt id='1706'> +8.7443519e+04 </wgt>
<wgt id='1707'> +8.2484370e+04 </wgt>
<wgt id='1708'> +8.7136926e+04 </wgt>
<wgt id='1709'> +8.7001842e+04 </wgt>
<wgt id='1710'> +8.3819003e+04 </wgt>
<wgt id='1711'> +8.5593193e+04 </wgt>
<wgt id='1712'> +8.4522804e+04 </wgt>
<wgt id='1713'> +8.4230771e+04 </wgt>
<wgt id='1714'> +8.5617758e+04 </wgt>
<wgt id='1715'> +8.4586793e+04 </wgt>
<wgt id='1716'> +8.1137052e+04 </wgt>
<wgt id='1717'> +8.4468693e+04 </wgt>
<wgt id='1718'> +8.4258507e+04 </wgt>
<wgt id='1719'> +8.4738046e+04 </wgt>
<wgt id='1720'> +8.4835064e+04 </wgt>
<wgt id='1721'> +8.4134114e+04 </wgt>
<wgt id='1722'> +8.5274176e+04 </wgt>
<wgt id='1723'> +8.3148704e+04 </wgt>
<wgt id='1724'> +8.4855893e+04 </wgt>
<wgt id='1725'> +8.4154116e+04 </wgt>
<wgt id='1726'> +8.4595881e+04 </wgt>
<wgt id='1727'> +8.4337535e+04 </wgt>
<wgt id='1728'> +8.5562712e+04 </wgt>
<wgt id='1729'> +8.3410745e+04 </wgt>
<wgt id='1730'> +8.3460316e+04 </wgt>
<wgt id='1731'> +8.5187744e+04 </wgt>
<wgt id='1732'> +8.3587754e+04 </wgt>
<wgt id='1733'> +8.3587754e+04 </wgt>
<wgt id='1734'> +8.5303470e+04 </wgt>
<wgt id='1735'> +8.3905243e+04 </wgt>
<wgt id='1736'> +8.5286351e+04 </wgt>
<wgt id='1737'> +8.3347715e+04 </wgt>
<wgt id='1738'> +8.3246606e+04 </wgt>
<wgt id='1739'> +8.6549007e+04 </wgt>
<wgt id='1740'> +8.4451689e+04 </wgt>
<wgt id='1741'> +8.4516997e+04 </wgt>
<wgt id='1742'> +8.4442442e+04 </wgt>
<wgt id='1743'> +8.4524310e+04 </wgt>
<wgt id='1744'> +8.4574430e+04 </wgt>
<wgt id='1745'> +8.4181982e+04 </wgt>
<wgt id='1746'> +8.2338508e+04 </wgt>
<wgt id='1747'> +8.5722582e+04 </wgt>
<wgt id='1748'> +8.5207693e+04 </wgt>
<wgt id='1749'> +8.2239167e+04 </wgt>
<wgt id='1750'> +8.4163898e+04 </wgt>
<wgt id='1751'> +8.4797540e+04 </wgt>
<wgt id='1752'> +8.4775460e+04 </wgt>
<wgt id='1753'> +8.4054867e+04 </wgt>
<wgt id='1754'> +8.4379858e+04 </wgt>
<wgt id='1755'> +8.4523082e+04 </wgt>
<wgt id='1756'> +8.3944154e+04 </wgt>
<wgt id='1757'> +8.5876733e+04 </wgt>
<wgt id='1758'> +8.4760627e+04 </wgt>
<wgt id='1759'> +8.4144187e+04 </wgt>
<wgt id='1760'> +8.4308343e+04 </wgt>
<wgt id='1761'> +8.4733474e+04 </wgt>
<wgt id='1762'> +8.3984389e+04 </wgt>
<wgt id='1763'> +8.5078411e+04 </wgt>
<wgt id='1764'> +8.4489755e+04 </wgt>
<wgt id='1765'> +8.4375329e+04 </wgt>
<wgt id='1766'> +8.4493599e+04 </wgt>
<wgt id='1767'> +8.4410884e+04 </wgt>
<wgt id='1768'> +8.4104803e+04 </wgt>
<wgt id='1769'> +8.4727982e+04 </wgt>
<wgt id='1770'> +8.4700767e+04 </wgt>
<wgt id='1771'> +8.3821604e+04 </wgt>
<wgt id='1772'> +8.4363757e+04 </wgt>
<wgt id='1773'> +8.4920329e+04 </wgt>
<wgt id='1774'> +8.5507478e+04 </wgt>
<wgt id='1775'> +8.3748519e+04 </wgt>
<wgt id='1776'> +8.4728626e+04 </wgt>
<wgt id='1777'> +8.4353853e+04 </wgt>
<wgt id='1778'> +8.4015165e+04 </wgt>
<wgt id='1779'> +8.4498672e+04 </wgt>
<wgt id='1780'> +8.2180500e+04 </wgt>
<wgt id='1781'> +8.5220833e+04 </wgt>
<wgt id='1782'> +8.4468693e+04 </wgt>
<wgt id='1783'> +8.4527007e+04 </wgt>
<wgt id='1784'> +8.0160720e+04 </wgt>
<wgt id='1785'> +7.8916738e+04 </wgt>
<wgt id='1786'> +8.5308749e+04 </wgt>
<wgt id='1787'> +8.0135379e+04 </wgt>
<wgt id='1788'> +8.0218659e+04 </wgt>
<wgt id='1789'> +7.9842017e+04 </wgt>
<wgt id='1790'> +7.8766784e+04 </wgt>
<wgt id='1791'> +7.9296495e+04 </wgt>
<wgt id='1792'> +8.0039723e+04 </wgt>
<wgt id='1793'> +7.9327172e+04 </wgt>
<wgt id='1794'> +8.0920840e+04 </wgt>
<wgt id='1795'> +8.1233544e+04 </wgt>
<wgt id='1796'> +8.0180083e+04 </wgt>
<wgt id='1797'> +8.2715558e+04 </wgt>
<wgt id='1798'> +7.9555236e+04 </wgt>
<wgt id='1799'> +7.9695041e+04 </wgt>
<wgt id='1800'> +7.9954995e+04 </wgt>
<wgt id='1801'> +7.8321084e+04 </wgt>
<wgt id='1802'> +7.9687786e+04 </wgt>
<wgt id='1803'> +7.9904892e+04 </wgt>
<wgt id='1804'> +8.0042114e+04 </wgt>
<wgt id='1805'> +8.0363656e+04 </wgt>
<wgt id='1806'> +7.9624230e+04 </wgt>
<wgt id='1807'> +7.9871432e+04 </wgt>
<wgt id='1808'> +7.9970684e+04 </wgt>
<wgt id='1809'> +7.9881208e+04 </wgt>
<wgt id='1810'> +7.9841272e+04 </wgt>
<wgt id='1811'> +8.0055129e+04 </wgt>
<wgt id='1812'> +8.0092353e+04 </wgt>
<wgt id='1813'> +7.9951402e+04 </wgt>
<wgt id='1814'> +7.9355084e+04 </wgt>
<wgt id='1815'> +8.0130392e+04 </wgt>
<wgt id='1816'> +7.9830817e+04 </wgt>
<wgt id='1817'> +7.9471149e+04 </wgt>
<wgt id='1818'> +8.0295097e+04 </wgt>
<wgt id='1819'> +7.9900498e+04 </wgt>
<wgt id='1820'> +7.9404212e+04 </wgt>
<wgt id='1821'> +8.0111550e+04 </wgt>
<wgt id='1822'> +7.9737214e+04 </wgt>
<wgt id='1823'> +7.8518705e+04 </wgt>
<wgt id='1824'> +8.0055624e+04 </wgt>
<wgt id='1825'> +7.9613293e+04 </wgt>
<wgt id='1826'> +8.1090523e+04 </wgt>
<wgt id='1827'> +7.9555061e+04 </wgt>
<wgt id='1828'> +7.9576395e+04 </wgt>
<wgt id='1829'> +7.9531359e+04 </wgt>
<wgt id='1830'> +7.9712331e+04 </wgt>
<wgt id='1831'> +7.9395518e+04 </wgt>
<wgt id='1832'> +7.9772769e+04 </wgt>
<wgt id='1833'> +7.9335420e+04 </wgt>
<wgt id='1834'> +7.9777504e+04 </wgt>
<wgt id='1835'> +7.9328550e+04 </wgt>
<wgt id='1836'> +7.9754266e+04 </wgt>
<wgt id='1837'> +7.9351687e+04 </wgt>
<wgt id='1838'> +7.9711452e+04 </wgt>
<wgt id='1839'> +7.9396075e+04 </wgt>
<wgt id='1840'> +7.9271211e+04 </wgt>
<wgt id='1841'> +7.9841232e+04 </wgt>
<wgt id='1842'> +7.9433866e+04 </wgt>
<wgt id='1843'> +7.9743746e+04 </wgt>
<wgt id='1844'> +7.9524102e+04 </wgt>
<wgt id='1845'> +7.9555682e+04 </wgt>
<wgt id='1846'> +7.9413846e+04 </wgt>
<wgt id='1847'> +7.9681139e+04 </wgt>
<wgt id='1848'> +7.8562194e+04 </wgt>
<wgt id='1849'> +8.0373511e+04 </wgt>
<wgt id='1850'> +7.9740214e+04 </wgt>
<wgt id='1851'> +7.9332936e+04 </wgt>
<wgt id='1852'> +7.9503013e+04 </wgt>
<wgt id='1853'> +7.9311755e+04 </wgt>
<wgt id='1854'> +7.9690670e+04 </wgt>
<wgt id='1855'> +7.9542596e+04 </wgt>
<wgt id='1856'> +8.5709093e+04 </wgt>
<wgt id='1857'> +8.5682870e+04 </wgt>
<wgt id='1858'> +8.5721669e+04 </wgt>
<wgt id='1859'> +8.5650029e+04 </wgt>
<wgt id='1860'> +8.5711886e+04 </wgt>
<wgt id='1861'> +8.5874178e+04 </wgt>
<wgt id='1862'> +8.6019983e+04 </wgt>
<wgt id='1863'> +8.5046339e+04 </wgt>
<wgt id='1864'> +8.5935365e+04 </wgt>
<wgt id='1865'> +8.5968695e+04 </wgt>
<wgt id='1866'> +8.5900256e+04 </wgt>
<wgt id='1867'> +8.5764685e+04 </wgt>
<wgt id='1868'> +8.6414865e+04 </wgt>
<wgt id='1869'> +8.5468868e+04 </wgt>
<wgt id='1870'> +8.6055410e+04 </wgt>
<wgt id='1871'> +8.5617020e+04 </wgt>
<wgt id='1872'> +8.5984802e+04 </wgt>
<wgt id='1873'> +8.5717236e+04 </wgt>
<wgt id='1874'> +8.5602245e+04 </wgt>
<wgt id='1875'> +8.5735184e+04 </wgt>
<wgt id='1876'> +8.5321072e+04 </wgt>
<wgt id='1877'> +8.6564750e+04 </wgt>
<wgt id='1878'> +8.4995653e+04 </wgt>
<wgt id='1879'> +8.6037623e+04 </wgt>
<wgt id='1880'> +8.6236770e+04 </wgt>
<wgt id='1881'> +8.6586151e+04 </wgt>
<wgt id='1882'> +8.5797454e+04 </wgt>
<wgt id='1883'> +8.5358955e+04 </wgt>
<wgt id='1884'> +8.5996254e+04 </wgt>
<wgt id='1885'> +8.4665710e+04 </wgt>
<wgt id='1886'> +2.0334572e+04 </wgt>
<wgt id='1887'> +3.5161902e+04 </wgt>
<wgt id='1888'> +5.2249451e+04 </wgt>
<wgt id='1889'> +6.0511549e+04 </wgt>
</rwgt>
</event>
<event npLO=" -1 " npNLO=" 0 ">
 5      1 +7.4519530e+04 2.73381160e+01 7.55820760e-03 1.19438210e-01
       -4 -1    0    0    0  501 +0.0000000000e+00 +0.0000000000e+00 +2.4947726174e+01 2.4947726174e+01 0.0000000000e+00 0.0000e+00 1.0000e+00
        3 -1    0    0  501    0 +0.0000000000e+00 +0.0000000000e+00 -6.6674433916e+01 6.6674433916e+01 0.0000000000e+00 0.0000e+00 -1.0000e+00
      -24  2    1    2    0    0 +0.0000000000e+00 +0.0000000000e+00 -4.1726707742e+01 9.1622160089e+01 8.1569001958e+01 0.0000e+00 0.0000e+00
       11  1    3    3    0    0 -7.8625072052e+00 -3.5152073284e+01 -4.2349058752e+01 5.5596133435e+01 0.0000000000e+00 0.0000e+00 -1.0000e+00
      -12  1    3    3    0    0 +7.8625072052e+00 +3.5152073284e+01 +6.2235100986e-01 3.6026026655e+01 0.0000000000e+00 0.0000e+00 1.0000e+00
#aMCatNLO 1  0  0  2  1 0.25031947E+02 0.00000000E+00 -9  5  0 0.00000000E+00 0.00000000E+00 0.00000000E+00 0.00000000E+00 0.00000000E+00
<rwgt>
<wgt id='1001'> +7.4519530e+04 </wgt>
<wgt id='1002'> +7.4728400e+04 </wgt>
<wgt id='1003'> +7.4256760e+04 </wgt>
<wgt id='1004'> +9.4782851e+04 </wgt>
<wgt id='1005'> +9.4291826e+04 </wgt>
<wgt id='1006'> +9.5391328e+04 </wgt>
<wgt id='1007'> +5.7960439e+04 </wgt>
<wgt id='1008'> +5.8435193e+04 </wgt>
<wgt id='1009'> +5.7366928e+04 </wgt>
<wgt id='1010'> +7.4519530e+04 </wgt>
<wgt id='1011'> +7.4759108e+04 </wgt>
<wgt id='1012'> +7.4939193e+04 </wgt>
<wgt id='1013'> +7.6601057e+04 </wgt>
<wgt id='1014'> +7.3666827e+04 </wgt>
<wgt id='1015'> +7.5776809e+04 </wgt>
<wgt id='1016'> +7.4812748e+04 </wgt>
<wgt id='1017'> +7.4680151e+04 </wgt>
<wgt id='1018'> +7.5236309e+04 </wgt>
<wgt id='1019'> +7.3398503e+04 </wgt>
<wgt id='1020'> +7.5865916e+04 </wgt>
<wgt id='1021'> +7.5221268e+04 </wgt>
<wgt id='1022'> +7.3430169e+04 </wgt>
<wgt id='1023'> +7.3895167e+04 </wgt>
<wgt id='1024'> +7.3304947e+04 </wgt>
<wgt id='1025'> +7.1786772e+04 </wgt>
<wgt id='1026'> +7.5425348e+04 </wgt>
<wgt id='1027'> +7.4717660e+04 </wgt>
<wgt id='1028'> +7.5850756e+04 </wgt>
<wgt id='1029'> +7.3028173e+04 </wgt>
<wgt id='1030'> +7.4486664e+04 </wgt>
<wgt id='1031'> +7.5075660e+04 </wgt>
<wgt id='1032'> +7.3850776e+04 </wgt>
<wgt id='1033'> +7.5154500e+04 </wgt>
<wgt id='1034'> +7.5922604e+04 </wgt>
<wgt id='1035'> +7.5812095e+04 </wgt>
<wgt id='1036'> +7.4944024e+04 </wgt>
<wgt id='1037'> +7.3772223e+04 </wgt>
<wgt id='1038'> +7.3871023e+04 </wgt>
<wgt id='1039'> +7.5146047e+04 </wgt>
<wgt id='1040'> +7.4382178e+04 </wgt>
<wgt id='1041'> +7.4259077e+04 </wgt>
<wgt id='1042'> +7.5672095e+04 </wgt>
<wgt id='1043'> +7.3683315e+04 </wgt>
<wgt id='1044'> +7.4617692e+04 </wgt>
<wgt id='1045'> +7.4571407e+04 </wgt>
<wgt id='1046'> +7.4507211e+04 </wgt>
<wgt id='1047'> +7.4602214e+04 </wgt>
<wgt id='1048'> +7.4262311e+04 </wgt>
<wgt id='1049'> +7.4438691e+04 </wgt>
<wgt id='1050'> +7.4522853e+04 </wgt>
<wgt id='1051'> +7.4523082e+04 </wgt>
<wgt id='1052'> +7.4343376e+04 </wgt>
<wgt id='1053'> +7.3856117e+04 </wgt>
<wgt id='1054'> +7.4325249e+04 </wgt>
<wgt id='1055'> +7.4683004e+04 </wgt>
<wgt id='1056'> +7.4847910e+04 </wgt>
<wgt id='1057'> +7.4614428e+04 </wgt>
<wgt id='1058'> +7.4467867e+04 </wgt>
<wgt id='1059'> +7.4510265e+04 </wgt>
<wgt id='1060'> +7.4424236e+04 </wgt>
<wgt id='1061'> +7.4697805e+04 </wgt>
<wgt id='1062'> +7.4660875e+04 </wgt>
<wgt id='1063'> +7.4619631e+04 </wgt>
<wgt id='1064'> +7.4455657e+04 </wgt>
<wgt id='1065'> +7.4309828e+04 </wgt>
<wgt id='1066'> +7.4646020e+04 </wgt>
<wgt id='1067'> +7.4532916e+04 </wgt>
<wgt id='1068'> +7.4735742e+04 </wgt>
<wgt id='1069'> +7.4450165e+04 </wgt>
<wgt id='1070'> +7.4647514e+04 </wgt>
<wgt id='1071'> +7.4608476e+04 </wgt>
<wgt id='1072'> +7.4563510e+04 </wgt>
<wgt id='1073'> +7.4336958e+04 </wgt>
<wgt id='1074'> +7.4461293e+04 </wgt>
<wgt id='1075'> +7.4577834e+04 </wgt>
<wgt id='1076'> +7.4614513e+04 </wgt>
<wgt id='1077'> +7.4169299e+04 </wgt>
<wgt id='1078'> +7.4729384e+04 </wgt>
<wgt id='1079'> +7.4486457e+04 </wgt>
<wgt id='1080'> +7.4575284e+04 </wgt>
<wgt id='1081'> +7.4727386e+04 </wgt>
<wgt id='1082'> +7.4541902e+04 </wgt>
<wgt id='1083'> +7.4344397e+04 </wgt>
<wgt id='1084'> +7.4389603e+04 </wgt>
<wgt id='1085'> +7.4494065e+04 </wgt>
<wgt id='1086'> +7.4612218e+04 </wgt>
<wgt id='1087'> +7.4586654e+04 </wgt>
<wgt id='1088'> +7.4315775e+04 </wgt>
<wgt id='1089'> +7.4472608e+04 </wgt>
<wgt id='1090'> +7.4459524e+04 </wgt>
<wgt id='1091'> +7.4490458e+04 </wgt>
<wgt id='1092'> +7.4576630e+04 </wgt>
<wgt id='1093'> +7.4375529e+04 </wgt>
<wgt id='1094'> +7.4617433e+04 </wgt>
<wgt id='1095'> +7.4640370e+04 </wgt>
<wgt id='1096'> +7.4543328e+04 </wgt>
<wgt id='1097'> +7.4387076e+04 </wgt>
<wgt id='1098'> +7.4625207e+04 </wgt>
<wgt id='1099'> +7.4501888e+04 </wgt>
<wgt id='1100'> +7.4600704e+04 </wgt>
<wgt id='1101'> +7.4684628e+04 </wgt>
<wgt id='1102'> +7.4550268e+04 </wgt>
<wgt id='1103'> +7.4481627e+04 </wgt>
<wgt id='1104'> +7.4384960e+04 </wgt>
<wgt id='1105'> +7.4477374e+04 </wgt>
<wgt id='1106'> +7.4538777e+04 </wgt>
<wgt id='1107'> +7.4580673e+04 </wgt>
<wgt id='1108'> +7.4530356e+04 </wgt>
<wgt id='1109'> +7.4465046e+04 </wgt>
<wgt id='1110'> +7.4519539e+04 </wgt>
<wgt id='1111'> +7.2483147e+04 </wgt>
<wgt id='1112'> +7.6490536e+04 </wgt>
<wgt id='1113'> +7.4519539e+04 </wgt>
<wgt id='1114'> +5.4196360e+04 </wgt>
<wgt id='1115'> +7.3512663e+04 </wgt>
<wgt id='1116'> +7.3148485e+04 </wgt>
<wgt id='1117'> +7.6152506e+04 </wgt>
<wgt id='1118'> +7.7794888e+04 </wgt>
<wgt id='1119'> +6.0504406e+04 </wgt>
<wgt id='1120'> +7.0610927e+04 </wgt>
<wgt id='1121'> +8.4667355e+04 </wgt>
<wgt id='1122'> +7.6304470e+04 </wgt>
<wgt id='1123'> +7.2006056e+04 </wgt>
<wgt id='1124'> +7.1441508e+04 </wgt>
<wgt id='1125'> +8.0777259e+04 </wgt>
<wgt id='1126'> +7.8364287e+04 </wgt>
<wgt id='1127'> +7.7211814e+04 </wgt>
<wgt id='1128'> +6.7852639e+04 </wgt>
<wgt id='1129'> +7.3877855e+04 </wgt>
<wgt id='1130'> +6.5319409e+04 </wgt>
<wgt id='1131'> +8.1824537e+04 </wgt>
<wgt id='1132'> +7.7057519e+04 </wgt>
<wgt id='1133'> +8.5845321e+04 </wgt>
<wgt id='1134'> +7.5372201e+04 </wgt>
<wgt id='1135'> +7.4252763e+04 </wgt>
<wgt id='1136'> +7.1018629e+04 </wgt>
<wgt id='1137'> +8.4701852e+04 </wgt>
<wgt id='1138'> +8.1762862e+04 </wgt>
<wgt id='1139'> +7.4930467e+04 </wgt>
<wgt id='1140'> +6.9233914e+04 </wgt>
<wgt id='1141'> +7.6303205e+04 </wgt>
<wgt id='1142'> +7.5389119e+04 </wgt>
<wgt id='1143'> +6.4032970e+04 </wgt>
<wgt id='1144'> +6.5602561e+04 </wgt>
<wgt id='1145'> +7.3065340e+04 </wgt>
<wgt id='1146'> +7.1622285e+04 </wgt>
<wgt id='1147'> +8.3796525e+04 </wgt>
<wgt id='1148'> +7.4048673e+04 </wgt>
<wgt id='1149'> +7.4491629e+04 </wgt>
<wgt id='1150'> +7.9020742e+04 </wgt>
<wgt id='1151'> +7.7988932e+04 </wgt>
<wgt id='1152'> +6.8143472e+04 </wgt>
<wgt id='1153'> +7.0300106e+04 </wgt>
<wgt id='1154'> +7.5771076e+04 </wgt>
<wgt id='1155'> +7.1989250e+04 </wgt>
<wgt id='1156'> +6.9908939e+04 </wgt>
<wgt id='1157'> +6.5619065e+04 </wgt>
<wgt id='1158'> +7.3036464e+04 </wgt>
<wgt id='1159'> +7.3635185e+04 </wgt>
<wgt id='1160'> +7.7152748e+04 </wgt>
<wgt id='1161'> +8.0612596e+04 </wgt>
<wgt id='1162'> +6.9033599e+04 </wgt>
<wgt id='1163'> +7.3841529e+04 </wgt>
<wgt id='1164'> +7.6459694e+04 </wgt>
<wgt id='1165'> +7.4724892e+04 </wgt>
<wgt id='1166'> +7.7990506e+04 </wgt>
<wgt id='1167'> +6.7753879e+04 </wgt>
<wgt id='1168'> +8.4713401e+04 </wgt>
<wgt id='1169'> +7.5012198e+04 </wgt>
<wgt id='1170'> +7.3942260e+04 </wgt>
<wgt id='1171'> +7.8673998e+04 </wgt>
<wgt id='1172'> +6.9983440e+04 </wgt>
<wgt id='1173'> +6.9314739e+04 </wgt>
<wgt id='1174'> +6.5287246e+04 </wgt>
<wgt id='1175'> +7.8006654e+04 </wgt>
<wgt id='1176'> +7.8212356e+04 </wgt>
<wgt id='1177'> +8.4608480e+04 </wgt>
<wgt id='1178'> +7.5344531e+04 </wgt>
<wgt id='1179'> +7.2948327e+04 </wgt>
<wgt id='1180'> +7.1573944e+04 </wgt>
<wgt id='1181'> +6.5637248e+04 </wgt>
<wgt id='1182'> +7.3274302e+04 </wgt>
<wgt id='1183'> +7.5878648e+04 </wgt>
<wgt id='1184'> +7.2911168e+04 </wgt>
<wgt id='1185'> +6.6812040e+04 </wgt>
<wgt id='1186'> +7.9918092e+04 </wgt>
<wgt id='1187'> +8.0182414e+04 </wgt>
<wgt id='1188'> +7.8499693e+04 </wgt>
<wgt id='1189'> +7.0800204e+04 </wgt>
<wgt id='1190'> +7.9410328e+04 </wgt>
<wgt id='1191'> +7.4048819e+04 </wgt>
<wgt id='1192'> +7.6825603e+04 </wgt>
<wgt id='1193'> +6.8363431e+04 </wgt>
<wgt id='1194'> +7.7951139e+04 </wgt>
<wgt id='1195'> +7.3877855e+04 </wgt>
<wgt id='1196'> +6.9340255e+04 </wgt>
<wgt id='1197'> +8.1292088e+04 </wgt>
<wgt id='1198'> +7.2443235e+04 </wgt>
<wgt id='1199'> +6.7869433e+04 </wgt>
<wgt id='1200'> +8.4000720e+04 </wgt>
<wgt id='1201'> +6.2781723e+04 </wgt>
<wgt id='1202'> +8.6416981e+04 </wgt>
<wgt id='1203'> +7.6631780e+04 </wgt>
<wgt id='1204'> +8.4196316e+04 </wgt>
<wgt id='1205'> +8.5401426e+04 </wgt>
<wgt id='1206'> +7.8978819e+04 </wgt>
<wgt id='1207'> +6.9427497e+04 </wgt>
<wgt id='1208'> +7.9005854e+04 </wgt>
<wgt id='1209'> +7.4988340e+04 </wgt>
<wgt id='1210'> +6.8136415e+04 </wgt>
<wgt id='1211'> +6.9282673e+04 </wgt>
<wgt id='1212'> +8.1265697e+04 </wgt>
<wgt id='1213'> +7.8658854e+04 </wgt>
<wgt id='1214'> +7.4623759e+04 </wgt>
<wgt id='1215'> +6.1047701e+04 </wgt>
<wgt id='1216'> +6.4421845e+04 </wgt>
<wgt id='1217'> +6.6473574e+04 </wgt>
<wgt id='1218'> +6.8512329e+04 </wgt>
<wgt id='1219'> +7.3206588e+04 </wgt>
<wgt id='1220'> +7.5852735e+04 </wgt>
<wgt id='1221'> +7.9962022e+04 </wgt>
<wgt id='1222'> +8.2083946e+04 </wgt>
<wgt id='1223'> +6.9002715e+04 </wgt>
<wgt id='1224'> +6.9439783e+04 </wgt>
<wgt id='1225'> +6.8558066e+04 </wgt>
<wgt id='1226'> +6.8845068e+04 </wgt>
<wgt id='1227'> +6.7996939e+04 </wgt>
<wgt id='1228'> +6.8287214e+04 </wgt>
<wgt id='1229'> +6.9817531e+04 </wgt>
<wgt id='1230'> +6.8206479e+04 </wgt>
<wgt id='1231'> +6.9333456e+04 </wgt>
<wgt id='1232'> +6.8170801e+04 </wgt>
<wgt id='1233'> +7.1434922e+04 </wgt>
<wgt id='1234'> +6.9492166e+04 </wgt>
<wgt id='1235'> +6.7902261e+04 </wgt>
<wgt id='1236'> +6.8726684e+04 </wgt>
<wgt id='1237'> +6.7342331e+04 </wgt>
<wgt id='1238'> +7.1163196e+04 </wgt>
<wgt id='1239'> +6.7014718e+04 </wgt>
<wgt id='1240'> +6.9228872e+04 </wgt>
<wgt id='1241'> +6.7839347e+04 </wgt>
<wgt id='1242'> +7.0065527e+04 </wgt>
<wgt id='1243'> +7.0855710e+04 </wgt>
<wgt id='1244'> +6.7503258e+04 </wgt>
<wgt id='1245'> +6.8753353e+04 </wgt>
<wgt id='1246'> +6.9318137e+04 </wgt>
<wgt id='1247'> +6.8804576e+04 </wgt>
<wgt id='1248'> +6.9907941e+04 </wgt>
<wgt id='1249'> +6.8974414e+04 </wgt>
<wgt id='1250'> +6.9339625e+04 </wgt>
<wgt id='1251'> +6.9063166e+04 </wgt>
<wgt id='1252'> +6.9209193e+04 </wgt>
<wgt id='1253'> +6.8925780e+04 </wgt>
<wgt id='1254'> +6.8475199e+04 </wgt>
<wgt id='1255'> +6.9487613e+04 </wgt>
<wgt id='1256'> +6.8476640e+04 </wgt>
<wgt id='1257'> +6.9255459e+04 </wgt>
<wgt id='1258'> +6.9581445e+04 </wgt>
<wgt id='1259'> +6.9325809e+04 </wgt>
<wgt id='1260'> +6.9672013e+04 </wgt>
<wgt id='1261'> +6.9183303e+04 </wgt>
<wgt id='1262'> +6.9055040e+04 </wgt>
<wgt id='1263'> +6.9216770e+04 </wgt>
<wgt id='1264'> +6.8526952e+04 </wgt>
<wgt id='1265'> +6.9046346e+04 </wgt>
<wgt id='1266'> +6.9359536e+04 </wgt>
<wgt id='1267'> +6.8951159e+04 </wgt>
<wgt id='1268'> +6.8951885e+04 </wgt>
<wgt id='1269'> +6.9021389e+04 </wgt>
<wgt id='1270'> +6.9576886e+04 </wgt>
<wgt id='1271'> +6.9490810e+04 </wgt>
<wgt id='1272'> +6.9062429e+04 </wgt>
<wgt id='1273'> +6.9315203e+04 </wgt>
<wgt id='1274'> +6.8969134e+04 </wgt>
<wgt id='1275'> +6.8846347e+04 </wgt>
<wgt id='1276'> +6.8947863e+04 </wgt>
<wgt id='1277'> +6.9481115e+04 </wgt>
<wgt id='1278'> +6.8941416e+04 </wgt>
<wgt id='1279'> +6.9251703e+04 </wgt>
<wgt id='1280'> +6.9049324e+04 </wgt>
<wgt id='1281'> +6.9063785e+04 </wgt>
<wgt id='1282'> +6.8987358e+04 </wgt>
<wgt id='1283'> +6.8811626e+04 </wgt>
<wgt id='1284'> +6.8973747e+04 </wgt>
<wgt id='1285'> +6.9083578e+04 </wgt>
<wgt id='1286'> +6.8971973e+04 </wgt>
<wgt id='1287'> +6.8826997e+04 </wgt>
<wgt id='1288'> +6.8863148e+04 </wgt>
<wgt id='1289'> +6.8865457e+04 </wgt>
<wgt id='1290'> +6.8888908e+04 </wgt>
<wgt id='1291'> +6.8892018e+04 </wgt>
<wgt id='1292'> +6.8877397e+04 </wgt>
<wgt id='1293'> +6.8826383e+04 </wgt>
<wgt id='1294'> +6.9272408e+04 </wgt>
<wgt id='1295'> +6.8972444e+04 </wgt>
<wgt id='1296'> +6.8798836e+04 </wgt>
<wgt id='1297'> +6.9010909e+04 </wgt>
<wgt id='1298'> +6.8952906e+04 </wgt>
<wgt id='1299'> +6.9167317e+04 </wgt>
<wgt id='1300'> +6.8822533e+04 </wgt>
<wgt id='1301'> +6.8983030e+04 </wgt>
<wgt id='1302'> +6.9068432e+04 </wgt>
<wgt id='1303'> +6.9063799e+04 </wgt>
<wgt id='1304'> +6.9018237e+04 </wgt>
<wgt id='1305'> +6.9145098e+04 </wgt>
<wgt id='1306'> +6.9048945e+04 </wgt>
<wgt id='1307'> +6.8911066e+04 </wgt>
<wgt id='1308'> +6.8887391e+04 </wgt>
<wgt id='1309'> +6.9047647e+04 </wgt>
<wgt id='1310'> +6.9064878e+04 </wgt>
<wgt id='1311'> +6.9023455e+04 </wgt>
<wgt id='1312'> +6.9007051e+04 </wgt>
<wgt id='1313'> +6.8903543e+04 </wgt>
<wgt id='1314'> +6.8986900e+04 </wgt>
<wgt id='1315'> +6.8881850e+04 </wgt>
<wgt id='1316'> +6.8897540e+04 </wgt>
<wgt id='1317'> +6.8960721e+04 </wgt>
<wgt id='1318'> +6.8967203e+04 </wgt>
<wgt id='1319'> +6.8973295e+04 </wgt>
<wgt id='1320'> +6.9070909e+04 </wgt>
<wgt id='1321'> +6.9011898e+04 </wgt>
<wgt id='1322'> +6.8809971e+04 </wgt>
<wgt id='1323'> +6.9093495e+04 </wgt>
<wgt id='1324'> +6.6794115e+04 </wgt>
<wgt id='1325'> +7.0733380e+04 </wgt>
<wgt id='1326'> +6.8192902e+04 </wgt>
<wgt id='1327'> +6.5521543e+04 </wgt>
<wgt id='1328'> +7.8650541e+04 </wgt>
<wgt id='1329'> +7.5831170e+04 </wgt>
<wgt id='1330'> +7.8472106e+04 </wgt>
<wgt id='1331'> +7.8016691e+04 </wgt>
<wgt id='1332'> +7.5483136e+04 </wgt>
<wgt id='1333'> +7.5365803e+04 </wgt>
<wgt id='1334'> +7.5122874e+04 </wgt>
<wgt id='1335'> +8.1220305e+04 </wgt>
<wgt id='1336'> +7.6383741e+04 </wgt>
<wgt id='1337'> +7.8537374e+04 </wgt>
<wgt id='1338'> +8.1822840e+04 </wgt>
<wgt id='1339'> +8.2469296e+04 </wgt>
<wgt id='1340'> +8.1742518e+04 </wgt>
<wgt id='1341'> +8.2880133e+04 </wgt>
<wgt id='1342'> +7.7000310e+04 </wgt>
<wgt id='1343'> +7.8325377e+04 </wgt>
<wgt id='1344'> +7.7683104e+04 </wgt>
<wgt id='1345'> +8.0936038e+04 </wgt>
<wgt id='1346'> +8.5430290e+04 </wgt>
<wgt id='1347'> +7.7052896e+04 </wgt>
<wgt id='1348'> +7.7477564e+04 </wgt>
<wgt id='1349'> +7.9047299e+04 </wgt>
<wgt id='1350'> +7.6801216e+04 </wgt>
<wgt id='1351'> +7.8734166e+04 </wgt>
<wgt id='1352'> +8.1370296e+04 </wgt>
<wgt id='1353'> +7.3961716e+04 </wgt>
<wgt id='1354'> +7.5568951e+04 </wgt>
<wgt id='1355'> +7.9496855e+04 </wgt>
<wgt id='1356'> +7.9375359e+04 </wgt>
<wgt id='1357'> +7.9787461e+04 </wgt>
<wgt id='1358'> +7.5516858e+04 </wgt>
<wgt id='1359'> +8.0344981e+04 </wgt>
<wgt id='1360'> +7.5175986e+04 </wgt>
<wgt id='1361'> +7.1821303e+04 </wgt>
<wgt id='1362'> +7.9951477e+04 </wgt>
<wgt id='1363'> +7.7228846e+04 </wgt>
<wgt id='1364'> +7.9324658e+04 </wgt>
<wgt id='1365'> +7.9774460e+04 </wgt>
<wgt id='1366'> +7.7305219e+04 </wgt>
<wgt id='1367'> +8.0256468e+04 </wgt>
<wgt id='1368'> +7.7612878e+04 </wgt>
<wgt id='1369'> +7.6701949e+04 </wgt>
<wgt id='1370'> +8.1576561e+04 </wgt>
<wgt id='1371'> +8.2425402e+04 </wgt>
<wgt id='1372'> +7.5181197e+04 </wgt>
<wgt id='1373'> +7.9808281e+04 </wgt>
<wgt id='1374'> +7.9085102e+04 </wgt>
<wgt id='1375'> +7.6746699e+04 </wgt>
<wgt id='1376'> +7.9104757e+04 </wgt>
<wgt id='1377'> +7.9273850e+04 </wgt>
<wgt id='1378'> +7.9538866e+04 </wgt>
<wgt id='1379'> +7.8874416e+04 </wgt>
<wgt id='1380'> +7.3944884e+04 </wgt>
<wgt id='1381'> +7.6825080e+04 </wgt>
<wgt id='1382'> +8.1838740e+04 </wgt>
<wgt id='1383'> +7.7676115e+04 </wgt>
<wgt id='1384'> +7.6525169e+04 </wgt>
<wgt id='1385'> +8.0888392e+04 </wgt>
<wgt id='1386'> +8.0087212e+04 </wgt>
<wgt id='1387'> +7.9182084e+04 </wgt>
<wgt id='1388'> +7.8440832e+04 </wgt>
<wgt id='1389'> +7.6471464e+04 </wgt>
<wgt id='1390'> +8.4229518e+04 </wgt>
<wgt id='1391'> +8.1989401e+04 </wgt>
<wgt id='1392'> +8.1138469e+04 </wgt>
<wgt id='1393'> +8.1064084e+04 </wgt>
<wgt id='1394'> +7.9774460e+04 </wgt>
<wgt id='1395'> +7.9646422e+04 </wgt>
<wgt id='1396'> +7.5022541e+04 </wgt>
<wgt id='1397'> +7.7493924e+04 </wgt>
<wgt id='1398'> +7.9377281e+04 </wgt>
<wgt id='1399'> +7.8668231e+04 </wgt>
<wgt id='1400'> +7.5992894e+04 </wgt>
<wgt id='1401'> +7.9166359e+04 </wgt>
<wgt id='1402'> +7.5390975e+04 </wgt>
<wgt id='1403'> +7.9536248e+04 </wgt>
<wgt id='1404'> +8.1205467e+04 </wgt>
<wgt id='1405'> +8.4732873e+04 </wgt>
<wgt id='1406'> +7.4797822e+04 </wgt>
<wgt id='1407'> +7.8680049e+04 </wgt>
<wgt id='1408'> +7.7439329e+04 </wgt>
<wgt id='1409'> +7.6519867e+04 </wgt>
<wgt id='1410'> +7.3373261e+04 </wgt>
<wgt id='1411'> +7.9684206e+04 </wgt>
<wgt id='1412'> +7.6610871e+04 </wgt>
<wgt id='1413'> +8.1156053e+04 </wgt>
<wgt id='1414'> +8.0893822e+04 </wgt>
<wgt id='1415'> +8.1927288e+04 </wgt>
<wgt id='1416'> +7.9701966e+04 </wgt>
<wgt id='1417'> +7.7536420e+04 </wgt>
<wgt id='1418'> +7.5053060e+04 </wgt>
<wgt id='1419'> +8.1018721e+04 </wgt>
<wgt id='1420'> +8.3425462e+04 </wgt>
<wgt id='1421'> +7.4753570e+04 </wgt>
<wgt id='1422'> +8.3093099e+04 </wgt>
<wgt id='1423'> +8.4835563e+04 </wgt>
<wgt id='1424'> +7.7870205e+04 </wgt>
<wgt id='1425'> +7.5518026e+04 </wgt>
<wgt id='1426'> +7.7367772e+04 </wgt>
<wgt id='1427'> +7.9575461e+04 </wgt>
<wgt id='1428'> +7.3944942e+04 </wgt>
<wgt id='1429'> +7.7839705e+04 </wgt>
<wgt id='1430'> +8.0399671e+04 </wgt>
<wgt id='1431'> +7.8656486e+04 </wgt>
<wgt id='1432'> +7.8062695e+04 </wgt>
<wgt id='1433'> +7.9796386e+04 </wgt>
<wgt id='1434'> +7.8738484e+04 </wgt>
<wgt id='1435'> +7.8699223e+04 </wgt>
<wgt id='1436'> +8.0386263e+04 </wgt>
<wgt id='1437'> +7.9008010e+04 </wgt>
<wgt id='1438'> +7.8924072e+04 </wgt>
<wgt id='1439'> +7.9424250e+04 </wgt>
<wgt id='1440'> +7.9095893e+04 </wgt>
<wgt id='1441'> +7.9205990e+04 </wgt>
<wgt id='1442'> +7.9370599e+04 </wgt>
<wgt id='1443'> +7.8480363e+04 </wgt>
<wgt id='1444'> +7.7412407e+04 </wgt>
<wgt id='1445'> +7.8842633e+04 </wgt>
<wgt id='1446'> +7.9119412e+04 </wgt>
<wgt id='1447'> +7.8655812e+04 </wgt>
<wgt id='1448'> +7.8811773e+04 </wgt>
<wgt id='1449'> +7.8466281e+04 </wgt>
<wgt id='1450'> +7.8960968e+04 </wgt>
<wgt id='1451'> +7.8737361e+04 </wgt>
<wgt id='1452'> +7.8711875e+04 </wgt>
<wgt id='1453'> +7.8678122e+04 </wgt>
<wgt id='1454'> +7.8628550e+04 </wgt>
<wgt id='1455'> +7.8535207e+04 </wgt>
<wgt id='1456'> +7.8631858e+04 </wgt>
<wgt id='1457'> +7.8560639e+04 </wgt>
<wgt id='1458'> +7.8592717e+04 </wgt>
<wgt id='1459'> +7.8478014e+04 </wgt>
<wgt id='1460'> +7.8598518e+04 </wgt>
<wgt id='1461'> +7.8707715e+04 </wgt>
<wgt id='1462'> +7.8593061e+04 </wgt>
<wgt id='1463'> +7.8836099e+04 </wgt>
<wgt id='1464'> +7.8650748e+04 </wgt>
<wgt id='1465'> +7.8707439e+04 </wgt>
<wgt id='1466'> +7.8489844e+04 </wgt>
<wgt id='1467'> +7.8602122e+04 </wgt>
<wgt id='1468'> +7.8673939e+04 </wgt>
<wgt id='1469'> +7.8707281e+04 </wgt>
<wgt id='1470'> +7.8704571e+04 </wgt>
<wgt id='1471'> +7.8711453e+04 </wgt>
<wgt id='1472'> +7.8695748e+04 </wgt>
<wgt id='1473'> +7.8621332e+04 </wgt>
<wgt id='1474'> +7.8650512e+04 </wgt>
<wgt id='1475'> +7.8724397e+04 </wgt>
<wgt id='1476'> +7.8555506e+04 </wgt>
<wgt id='1477'> +7.8657559e+04 </wgt>
<wgt id='1478'> +7.8696929e+04 </wgt>
<wgt id='1479'> +7.8667214e+04 </wgt>
<wgt id='1480'> +7.8736580e+04 </wgt>
<wgt id='1481'> +7.8626818e+04 </wgt>
<wgt id='1482'> +7.7839705e+04 </wgt>
<wgt id='1483'> +8.0399671e+04 </wgt>
<wgt id='1484'> +7.8573794e+04 </wgt>
<wgt id='1485'> +7.6382273e+04 </wgt>
<wgt id='1486'> +7.5894866e+04 </wgt>
<wgt id='1487'> +8.3484627e+04 </wgt>
<wgt id='1488'> +8.0322339e+04 </wgt>
<wgt id='1489'> +7.7715597e+04 </wgt>
<wgt id='1490'> +8.2078229e+04 </wgt>
<wgt id='1491'> +8.0153772e+04 </wgt>
<wgt id='1492'> +8.1506528e+04 </wgt>
<wgt id='1493'> +7.6359600e+04 </wgt>
<wgt id='1494'> +7.8715138e+04 </wgt>
<wgt id='1495'> +8.4622706e+04 </wgt>
<wgt id='1496'> +8.0365435e+04 </wgt>
<wgt id='1497'> +8.2435756e+04 </wgt>
<wgt id='1498'> +7.5615768e+04 </wgt>
<wgt id='1499'> +7.7034420e+04 </wgt>
<wgt id='1500'> +7.7861725e+04 </wgt>
<wgt id='1501'> +7.8327237e+04 </wgt>
<wgt id='1502'> +7.7668671e+04 </wgt>
<wgt id='1503'> +8.1622440e+04 </wgt>
<wgt id='1504'> +7.8975195e+04 </wgt>
<wgt id='1505'> +7.3367274e+04 </wgt>
<wgt id='1506'> +8.2860080e+04 </wgt>
<wgt id='1507'> +7.7160416e+04 </wgt>
<wgt id='1508'> +8.3417868e+04 </wgt>
<wgt id='1509'> +7.6448084e+04 </wgt>
<wgt id='1510'> +8.1038233e+04 </wgt>
<wgt id='1511'> +7.6492701e+04 </wgt>
<wgt id='1512'> +7.8629781e+04 </wgt>
<wgt id='1513'> +8.2325352e+04 </wgt>
<wgt id='1514'> +7.9345497e+04 </wgt>
<wgt id='1515'> +8.2969071e+04 </wgt>
<wgt id='1516'> +7.8577780e+04 </wgt>
<wgt id='1517'> +7.7837550e+04 </wgt>
<wgt id='1518'> +7.9677740e+04 </wgt>
<wgt id='1519'> +7.9666098e+04 </wgt>
<wgt id='1520'> +7.4649753e+04 </wgt>
<wgt id='1521'> +7.7959914e+04 </wgt>
<wgt id='1522'> +7.9633688e+04 </wgt>
<wgt id='1523'> +7.9346267e+04 </wgt>
<wgt id='1524'> +7.5968016e+04 </wgt>
<wgt id='1525'> +7.4473543e+04 </wgt>
<wgt id='1526'> +7.5804116e+04 </wgt>
<wgt id='1527'> +8.0024978e+04 </wgt>
<wgt id='1528'> +7.5900410e+04 </wgt>
<wgt id='1529'> +8.0156805e+04 </wgt>
<wgt id='1530'> +7.7841579e+04 </wgt>
<wgt id='1531'> +7.8083098e+04 </wgt>
<wgt id='1532'> +7.8739295e+04 </wgt>
<wgt id='1533'> +7.5331329e+04 </wgt>
<wgt id='1534'> +7.8616939e+04 </wgt>
<wgt id='1535'> +8.0966325e+04 </wgt>
<wgt id='1536'> +7.6700318e+04 </wgt>
<wgt id='1537'> +7.7829118e+04 </wgt>
<wgt id='1538'> +8.1156871e+04 </wgt>
<wgt id='1539'> +7.7306361e+04 </wgt>
<wgt id='1540'> +7.9000793e+04 </wgt>
<wgt id='1541'> +7.6151415e+04 </wgt>
<wgt id='1542'> +8.0324238e+04 </wgt>
<wgt id='1543'> +7.8408605e+04 </wgt>
<wgt id='1544'> +7.8027345e+04 </wgt>
<wgt id='1545'> +7.5596007e+04 </wgt>
<wgt id='1546'> +7.8442033e+04 </wgt>
<wgt id='1547'> +7.7700939e+04 </wgt>
<wgt id='1548'> +7.8221901e+04 </wgt>
<wgt id='1549'> +8.0895937e+04 </wgt>
<wgt id='1550'> +7.7022637e+04 </wgt>
<wgt id='1551'> +7.8485198e+04 </wgt>
<wgt id='1552'> +7.6140920e+04 </wgt>
<wgt id='1553'> +7.8593159e+04 </wgt>
<wgt id='1554'> +7.6086088e+04 </wgt>
<wgt id='1555'> +8.1958667e+04 </wgt>
<wgt id='1556'> +8.2085014e+04 </wgt>
<wgt id='1557'> +8.1022573e+04 </wgt>
<wgt id='1558'> +7.5724459e+04 </wgt>
<wgt id='1559'> +7.7075757e+04 </wgt>
<wgt id='1560'> +7.4480886e+04 </wgt>
<wgt id='1561'> +7.8125098e+04 </wgt>
<wgt id='1562'> +7.7992006e+04 </wgt>
<wgt id='1563'> +7.9195509e+04 </wgt>
<wgt id='1564'> +7.5643547e+04 </wgt>
<wgt id='1565'> +7.5899239e+04 </wgt>
<wgt id='1566'> +8.1770150e+04 </wgt>
<wgt id='1567'> +8.0183449e+04 </wgt>
<wgt id='1568'> +7.8210911e+04 </wgt>
<wgt id='1569'> +7.9210719e+04 </wgt>
<wgt id='1570'> +7.7945469e+04 </wgt>
<wgt id='1571'> +7.8027604e+04 </wgt>
<wgt id='1572'> +7.8156120e+04 </wgt>
<wgt id='1573'> +7.8850428e+04 </wgt>
<wgt id='1574'> +7.9782543e+04 </wgt>
<wgt id='1575'> +7.7322970e+04 </wgt>
<wgt id='1576'> +7.6009398e+04 </wgt>
<wgt id='1577'> +8.3214703e+04 </wgt>
<wgt id='1578'> +7.8848510e+04 </wgt>
<wgt id='1579'> +8.1766897e+04 </wgt>
<wgt id='1580'> +7.9331105e+04 </wgt>
<wgt id='1581'> +7.5154819e+04 </wgt>
<wgt id='1582'> +7.6675607e+04 </wgt>
<wgt id='1583'> +7.3602755e+04 </wgt>
<wgt id='1584'> +8.1535764e+04 </wgt>
<wgt id='1585'> +7.5216796e+04 </wgt>
<wgt id='1586'> +7.5346065e+04 </wgt>
<wgt id='1587'> +7.6967965e+04 </wgt>
<wgt id='1588'> +7.7839705e+04 </wgt>
<wgt id='1589'> +7.8580639e+04 </wgt>
<wgt id='1590'> +7.9922199e+04 </wgt>
<wgt id='1591'> +8.0399671e+04 </wgt>
<wgt id='1592'> +8.1913312e+04 </wgt>
<wgt id='1593'> +6.9409119e+04 </wgt>
<wgt id='1594'> +6.7777339e+04 </wgt>
<wgt id='1595'> +7.0351281e+04 </wgt>
<wgt id='1596'> +6.7199436e+04 </wgt>
<wgt id='1597'> +6.7167247e+04 </wgt>
<wgt id='1598'> +7.6293386e+04 </wgt>
<wgt id='1599'> +6.4986438e+04 </wgt>
<wgt id='1600'> +7.8034637e+04 </wgt>
<wgt id='1601'> +6.2734472e+04 </wgt>
<wgt id='1602'> +7.4455000e+04 </wgt>
<wgt id='1603'> +6.5561544e+04 </wgt>
<wgt id='1604'> +6.8727220e+04 </wgt>
<wgt id='1605'> +7.0682021e+04 </wgt>
<wgt id='1606'> +6.3883874e+04 </wgt>
<wgt id='1607'> +7.2656419e+04 </wgt>
<wgt id='1608'> +6.5998463e+04 </wgt>
<wgt id='1609'> +6.7512884e+04 </wgt>
<wgt id='1610'> +6.9698901e+04 </wgt>
<wgt id='1611'> +6.9132570e+04 </wgt>
<wgt id='1612'> +6.7620864e+04 </wgt>
<wgt id='1613'> +7.1834301e+04 </wgt>
<wgt id='1614'> +6.7474107e+04 </wgt>
<wgt id='1615'> +7.3046634e+04 </wgt>
<wgt id='1616'> +7.1959538e+04 </wgt>
<wgt id='1617'> +6.5849531e+04 </wgt>
<wgt id='1618'> +6.8536433e+04 </wgt>
<wgt id='1619'> +7.1918337e+04 </wgt>
<wgt id='1620'> +6.8126791e+04 </wgt>
<wgt id='1621'> +6.9548737e+04 </wgt>
<wgt id='1622'> +6.7572602e+04 </wgt>
<wgt id='1623'> +7.0403193e+04 </wgt>
<wgt id='1624'> +7.0333466e+04 </wgt>
<wgt id='1625'> +6.5170494e+04 </wgt>
<wgt id='1626'> +6.8618441e+04 </wgt>
<wgt id='1627'> +6.9894183e+04 </wgt>
<wgt id='1628'> +6.7177444e+04 </wgt>
<wgt id='1629'> +6.8223615e+04 </wgt>
<wgt id='1630'> +6.2222580e+04 </wgt>
<wgt id='1631'> +7.8214632e+04 </wgt>
<wgt id='1632'> +6.3340455e+04 </wgt>
<wgt id='1633'> +7.7201060e+04 </wgt>
<wgt id='1634'> +6.7071121e+04 </wgt>
<wgt id='1635'> +7.1913077e+04 </wgt>
<wgt id='1636'> +7.1670699e+04 </wgt>
<wgt id='1637'> +6.7352242e+04 </wgt>
<wgt id='1638'> +6.9246628e+04 </wgt>
<wgt id='1639'> +6.6683516e+04 </wgt>
<wgt id='1640'> +6.5660816e+04 </wgt>
<wgt id='1641'> +7.2297275e+04 </wgt>
<wgt id='1642'> +7.2633189e+04 </wgt>
<wgt id='1643'> +6.6506501e+04 </wgt>
<wgt id='1644'> +6.2455928e+04 </wgt>
<wgt id='1645'> +7.9053293e+04 </wgt>
<wgt id='1646'> +6.5515938e+04 </wgt>
<wgt id='1647'> +7.0282891e+04 </wgt>
<wgt id='1648'> +6.6986024e+04 </wgt>
<wgt id='1649'> +7.0738996e+04 </wgt>
<wgt id='1650'> +6.9468654e+04 </wgt>
<wgt id='1651'> +6.9511333e+04 </wgt>
<wgt id='1652'> +6.7037385e+04 </wgt>
<wgt id='1653'> +6.8287716e+04 </wgt>
<wgt id='1654'> +7.0410752e+04 </wgt>
<wgt id='1655'> +7.1297249e+04 </wgt>
<wgt id='1656'> +8.4133022e+04 </wgt>
<wgt id='1657'> +8.4037488e+04 </wgt>
<wgt id='1658'> +8.2966638e+04 </wgt>
<wgt id='1659'> +8.4306888e+04 </wgt>
<wgt id='1660'> +8.3900939e+04 </wgt>
<wgt id='1661'> +8.1022007e+04 </wgt>
<wgt id='1662'> +8.5561434e+04 </wgt>
<wgt id='1663'> +8.3752251e+04 </wgt>
<wgt id='1664'> +8.3197256e+04 </wgt>
<wgt id='1665'> +8.2922975e+04 </wgt>
<wgt id='1666'> +8.4283114e+04 </wgt>
<wgt id='1667'> +8.2900168e+04 </wgt>
<wgt id='1668'> +8.5023861e+04 </wgt>
<wgt id='1669'> +8.1769479e+04 </wgt>
<wgt id='1670'> +8.7462950e+04 </wgt>
<wgt id='1671'> +8.3685311e+04 </wgt>
<wgt id='1672'> +8.4384711e+04 </wgt>
<wgt id='1673'> +8.6206790e+04 </wgt>
<wgt id='1674'> +8.2742985e+04 </wgt>
<wgt id='1675'> +8.4314349e+04 </wgt>
<wgt id='1676'> +8.1536974e+04 </wgt>
<wgt id='1677'> +8.5300025e+04 </wgt>
<wgt id='1678'> +8.2013776e+04 </wgt>
<wgt id='1679'> +8.5994066e+04 </wgt>
<wgt id='1680'> +8.3184180e+04 </wgt>
<wgt id='1681'> +8.4794039e+04 </wgt>
<wgt id='1682'> +8.2495732e+04 </wgt>
<wgt id='1683'> +8.3563319e+04 </wgt>
<wgt id='1684'> +8.3667632e+04 </wgt>
<wgt id='1685'> +8.5510405e+04 </wgt>
<wgt id='1686'> +8.1176566e+04 </wgt>
<wgt id='1687'> +7.9386689e+04 </wgt>
<wgt id='1688'> +9.1175831e+04 </wgt>
<wgt id='1689'> +8.0045880e+04 </wgt>
<wgt id='1690'> +8.8890125e+04 </wgt>
<wgt id='1691'> +8.3228724e+04 </wgt>
<wgt id='1692'> +8.4194417e+04 </wgt>
<wgt id='1693'> +7.5935830e+04 </wgt>
<wgt id='1694'> +9.4229415e+04 </wgt>
<wgt id='1695'> +8.2803053e+04 </wgt>
<wgt id='1696'> +8.5288287e+04 </wgt>
<wgt id='1697'> +8.2216240e+04 </wgt>
<wgt id='1698'> +8.6458139e+04 </wgt>
<wgt id='1699'> +8.3551043e+04 </wgt>
<wgt id='1700'> +8.1168073e+04 </wgt>
<wgt id='1701'> +8.9362272e+04 </wgt>
<wgt id='1702'> +7.9984814e+04 </wgt>
<wgt id='1703'> +8.4765154e+04 </wgt>
<wgt id='1704'> +8.4007805e+04 </wgt>
<wgt id='1705'> +8.3182379e+04 </wgt>
<wgt id='1706'> +8.3680375e+04 </wgt>
<wgt id='1707'> +8.3573214e+04 </wgt>
<wgt id='1708'> +8.4174145e+04 </wgt>
<wgt id='1709'> +8.2462093e+04 </wgt>
<wgt id='1710'> +8.3428267e+04 </wgt>
<wgt id='1711'> +8.2969560e+04 </wgt>
<wgt id='1712'> +8.4181117e+04 </wgt>
<wgt id='1713'> +8.3256405e+04 </wgt>
<wgt id='1714'> +8.4418209e+04 </wgt>
<wgt id='1715'> +8.1588537e+04 </wgt>
<wgt id='1716'> +7.2536778e+04 </wgt>
<wgt id='1717'> +8.1619806e+04 </wgt>
<wgt id='1718'> +8.1508974e+04 </wgt>
<wgt id='1719'> +8.1761866e+04 </wgt>
<wgt id='1720'> +8.2753470e+04 </wgt>
<wgt id='1721'> +8.0584381e+04 </wgt>
<wgt id='1722'> +8.2946506e+04 </wgt>
<wgt id='1723'> +7.9446049e+04 </wgt>
<wgt id='1724'> +8.1070377e+04 </wgt>
<wgt id='1725'> +8.2066146e+04 </wgt>
<wgt id='1726'> +8.0729632e+04 </wgt>
<wgt id='1727'> +8.2537500e+04 </wgt>
<wgt id='1728'> +8.1053867e+04 </wgt>
<wgt id='1729'> +8.2166547e+04 </wgt>
<wgt id='1730'> +8.1548200e+04 </wgt>
<wgt id='1731'> +8.1671034e+04 </wgt>
<wgt id='1732'> +8.1579916e+04 </wgt>
<wgt id='1733'> +8.1579916e+04 </wgt>
<wgt id='1734'> +8.1490825e+04 </wgt>
<wgt id='1735'> +8.1701690e+04 </wgt>
<wgt id='1736'> +8.2094856e+04 </wgt>
<wgt id='1737'> +8.0971227e+04 </wgt>
<wgt id='1738'> +8.1639668e+04 </wgt>
<wgt id='1739'> +8.1567977e+04 </wgt>
<wgt id='1740'> +8.1539414e+04 </wgt>
<wgt id='1741'> +8.1814958e+04 </wgt>
<wgt id='1742'> +8.1405106e+04 </wgt>
<wgt id='1743'> +8.1876513e+04 </wgt>
<wgt id='1744'> +8.1475668e+04 </wgt>
<wgt id='1745'> +8.2008199e+04 </wgt>
<wgt id='1746'> +8.0640173e+04 </wgt>
<wgt id='1747'> +8.2177753e+04 </wgt>
<wgt id='1748'> +8.1997647e+04 </wgt>
<wgt id='1749'> +8.0397180e+04 </wgt>
<wgt id='1750'> +8.1384562e+04 </wgt>
<wgt id='1751'> +8.1873383e+04 </wgt>
<wgt id='1752'> +8.1517412e+04 </wgt>
<wgt id='1753'> +8.1764352e+04 </wgt>
<wgt id='1754'> +8.1687558e+04 </wgt>
<wgt id='1755'> +8.1585582e+04 </wgt>
<wgt id='1756'> +8.1549716e+04 </wgt>
<wgt id='1757'> +8.1852538e+04 </wgt>
<wgt id='1758'> +8.1712758e+04 </wgt>
<wgt id='1759'> +8.1527726e+04 </wgt>
<wgt id='1760'> +8.1110518e+04 </wgt>
<wgt id='1761'> +8.2172906e+04 </wgt>
<wgt id='1762'> +8.1559741e+04 </wgt>
<wgt id='1763'> +8.1164938e+04 </wgt>
<wgt id='1764'> +8.1654130e+04 </wgt>
<wgt id='1765'> +8.1463729e+04 </wgt>
<wgt id='1766'> +8.1484950e+04 </wgt>
<wgt id='1767'> +8.1781598e+04 </wgt>
<wgt id='1768'> +8.1551013e+04 </wgt>
<wgt id='1769'> +8.1619352e+04 </wgt>
<wgt id='1770'> +8.1656596e+04 </wgt>
<wgt id='1771'> +8.1161050e+04 </wgt>
<wgt id='1772'> +8.1816189e+04 </wgt>
<wgt id='1773'> +8.1574078e+04 </wgt>
<wgt id='1774'> +8.3145423e+04 </wgt>
<wgt id='1775'> +8.0585894e+04 </wgt>
<wgt id='1776'> +8.1925064e+04 </wgt>
<wgt id='1777'> +8.1562298e+04 </wgt>
<wgt id='1778'> +8.1831911e+04 </wgt>
<wgt id='1779'> +8.1249442e+04 </wgt>
<wgt id='1780'> +7.8625571e+04 </wgt>
<wgt id='1781'> +8.1418009e+04 </wgt>
<wgt id='1782'> +8.1619806e+04 </wgt>
<wgt id='1783'> +8.1568992e+04 </wgt>
<wgt id='1784'> +7.7358035e+04 </wgt>
<wgt id='1785'> +7.7768400e+04 </wgt>
<wgt id='1786'> +8.5036288e+04 </wgt>
<wgt id='1787'> +7.7564872e+04 </wgt>
<wgt id='1788'> +7.7064894e+04 </wgt>
<wgt id='1789'> +7.7069522e+04 </wgt>
<wgt id='1790'> +7.7053463e+04 </wgt>
<wgt id='1791'> +7.7076444e+04 </wgt>
<wgt id='1792'> +7.9074998e+04 </wgt>
<wgt id='1793'> +7.7466616e+04 </wgt>
<wgt id='1794'> +7.7510482e+04 </wgt>
<wgt id='1795'> +7.7553389e+04 </wgt>
<wgt id='1796'> +7.7672081e+04 </wgt>
<wgt id='1797'> +7.6117860e+04 </wgt>
<wgt id='1798'> +7.7633209e+04 </wgt>
<wgt id='1799'> +7.7273381e+04 </wgt>
<wgt id='1800'> +7.6429332e+04 </wgt>
<wgt id='1801'> +7.5708079e+04 </wgt>
<wgt id='1802'> +7.8182138e+04 </wgt>
<wgt id='1803'> +7.6948844e+04 </wgt>
<wgt id='1804'> +7.7267746e+04 </wgt>
<wgt id='1805'> +7.8549146e+04 </wgt>
<wgt id='1806'> +7.6729381e+04 </wgt>
<wgt id='1807'> +7.7480657e+04 </wgt>
<wgt id='1808'> +7.6891104e+04 </wgt>
<wgt id='1809'> +7.7186015e+04 </wgt>
<wgt id='1810'> +7.7316318e+04 </wgt>
<wgt id='1811'> +7.7444554e+04 </wgt>
<wgt id='1812'> +7.8660409e+04 </wgt>
<wgt id='1813'> +7.8253048e+04 </wgt>
<wgt id='1814'> +7.6832571e+04 </wgt>
<wgt id='1815'> +7.7324114e+04 </wgt>
<wgt id='1816'> +7.7315515e+04 </wgt>
<wgt id='1817'> +7.7239252e+04 </wgt>
<wgt id='1818'> +7.7558351e+04 </wgt>
<wgt id='1819'> +7.7444659e+04 </wgt>
<wgt id='1820'> +7.5961144e+04 </wgt>
<wgt id='1821'> +7.6950547e+04 </wgt>
<wgt id='1822'> +7.7089797e+04 </wgt>
<wgt id='1823'> +7.2695396e+04 </wgt>
<wgt id='1824'> +7.7256160e+04 </wgt>
<wgt id='1825'> +7.6222158e+04 </wgt>
<wgt id='1826'> +7.8037273e+04 </wgt>
<wgt id='1827'> +7.5981672e+04 </wgt>
<wgt id='1828'> +7.6072161e+04 </wgt>
<wgt id='1829'> +7.5895802e+04 </wgt>
<wgt id='1830'> +7.6053709e+04 </wgt>
<wgt id='1831'> +7.5913811e+04 </wgt>
<wgt id='1832'> +7.6156191e+04 </wgt>
<wgt id='1833'> +7.5811859e+04 </wgt>
<wgt id='1834'> +7.5901785e+04 </wgt>
<wgt id='1835'> +7.6057220e+04 </wgt>
<wgt id='1836'> +7.6317256e+04 </wgt>
<wgt id='1837'> +7.5647389e+04 </wgt>
<wgt id='1838'> +7.6065589e+04 </wgt>
<wgt id='1839'> +7.5901673e+04 </wgt>
<wgt id='1840'> +7.5742022e+04 </wgt>
<wgt id='1841'> +7.6230895e+04 </wgt>
<wgt id='1842'> +7.5906365e+04 </wgt>
<wgt id='1843'> +7.6148144e+04 </wgt>
<wgt id='1844'> +7.5992363e+04 </wgt>
<wgt id='1845'> +7.5948647e+04 </wgt>
<wgt id='1846'> +7.5856991e+04 </wgt>
<wgt id='1847'> +7.6097575e+04 </wgt>
<wgt id='1848'> +7.5348812e+04 </wgt>
<wgt id='1849'> +7.6459966e+04 </wgt>
<wgt id='1850'> +7.6377498e+04 </wgt>
<wgt id='1851'> +7.5564183e+04 </wgt>
<wgt id='1852'> +7.6281332e+04 </wgt>
<wgt id='1853'> +7.5443464e+04 </wgt>
<wgt id='1854'> +7.6355776e+04 </wgt>
<wgt id='1855'> +7.5723966e+04 </wgt>
<wgt id='1856'> +7.7481663e+04 </wgt>
<wgt id='1857'> +7.7458001e+04 </wgt>
<wgt id='1858'> +7.7478657e+04 </wgt>
<wgt id='1859'> +7.7393537e+04 </wgt>
<wgt id='1860'> +7.7488073e+04 </wgt>
<wgt id='1861'> +7.7909191e+04 </wgt>
<wgt id='1862'> +7.7972412e+04 </wgt>
<wgt id='1863'> +7.6619035e+04 </wgt>
<wgt id='1864'> +7.7686212e+04 </wgt>
<wgt id='1865'> +7.7534776e+04 </wgt>
<wgt id='1866'> +7.7547432e+04 </wgt>
<wgt id='1867'> +7.7511462e+04 </wgt>
<wgt id='1868'> +7.7970748e+04 </wgt>
<wgt id='1869'> +7.7534351e+04 </wgt>
<wgt id='1870'> +7.7662661e+04 </wgt>
<wgt id='1871'> +7.7511201e+04 </wgt>
<wgt id='1872'> +7.7657169e+04 </wgt>
<wgt id='1873'> +7.7466554e+04 </wgt>
<wgt id='1874'> +7.7365561e+04 </wgt>
<wgt id='1875'> +7.7479848e+04 </wgt>
<wgt id='1876'> +7.7167868e+04 </wgt>
<wgt id='1877'> +7.8129648e+04 </wgt>
<wgt id='1878'> +7.6980293e+04 </wgt>
<wgt id='1879'> +7.7749010e+04 </wgt>
<wgt id='1880'> +7.7989395e+04 </wgt>
<wgt id='1881'> +7.8193021e+04 </wgt>
<wgt id='1882'> +7.7480011e+04 </wgt>
<wgt id='1883'> +7.7197463e+04 </wgt>
<wgt id='1884'> +7.7662790e+04 </wgt>
<wgt id='1885'> +7.6582117e+04 </wgt>
<wgt id='1886'> +7.4385353e+03 </wgt>
<wgt id='1887'> +2.3432014e+04 </wgt>
<wgt id='1888'> +4.2746181e+04 </wgt>
<wgt id='1889'> +5.3332146e+04 </wgt>
</rwgt>
</event>
<event npLO=" -1 " npNLO=" 0 ">
 6      1 +7.4519530e+04 3.00000000e+01 7.55820760e-03 1.19881810e-01
       21 -1    0    0  501  502 +0.0000000000e+00 +0.0000000000e+00 +1.7705401125e+02 1.7705401125e+02 0.0000000000e+00 0.0000e+00 -1.0000e+00
       -4 -1    0    0    0  501 +0.0000000000e+00 +0.0000000000e+00 -1.4236340177e+01 1.4236340177e+01 0.0000000000e+00 0.0000e+00 1.0000e+00
      -24  2    1    2    0    0 -1.2298549575e+01 -1.3421069946e+01 +1.3375216179e+02 1.5699482300e+02 8.0164544689e+01 0.0000e+00 0.0000e+00
       11  1    3    3    0    0 -4.9098256232e+00 -8.3391861397e+00 +1.4345588246e+02 1.4378191342e+02 0.0000000000e+00 0.0000e+00 -1.0000e+00
      -12  1    3    3    0    0 -7.3887239524e+00 -5.0818838065e+00 -9.7037206742e+00 1.3212909581e+01 0.0000000000e+00 0.0000e+00 1.0000e+00
       -3  1    1    2    0  502 +1.2298549575e+01 +1.3421069946e+01 +2.9065509290e+01 3.4295528432e+01 0.0000000000e+00 0.0000e+00 1.0000e+00
#aMCatNLO 2  0  0  1  2 0.25914542E+02 0.00000000E+00 -9  5  0 0.00000000E+00 0.00000000E+00 0.00000000E+00 0.00000000E+00 0.00000000E+00
<rwgt>
<wgt id='1001'> +7.4519530e+04 </wgt>
<wgt id='1002'> +6.7363655e+04 </wgt>
<wgt id='1003'> +8.3428679e+04 </wgt>
<wgt id='1004'> +8.2686574e+04 </wgt>
<wgt id='1005'> +7.4746447e+04 </wgt>
<wgt id='1006'> +9.2572134e+04 </wgt>
<wgt id='1007'> +6.4799602e+04 </wgt>
<wgt id='1008'> +5.8577104e+04 </wgt>
<wgt id='1009'> +7.2546692e+04 </wgt>
<wgt id='1010'> +7.4519530e+04 </wgt>
<wgt id='1011'> +7.4777290e+04 </wgt>
<wgt id='1012'> +7.4394043e+04 </wgt>
<wgt id='1013'> +7.4592476e+04 </wgt>
<wgt id='1014'> +7.4702470e+04 </wgt>
<wgt id='1015'> +7.4689535e+04 </wgt>
<wgt id='1016'> +7.4601672e+04 </wgt>
<wgt id='1017'> +7.4731573e+04 </wgt>
<wgt id='1018'> +7.4703671e+04 </wgt>
<wgt id='1019'> +7.4423300e+04 </wgt>
<wgt id='1020'> +7.4618767e+04 </wgt>
<wgt id='1021'> +7.4247325e+04 </wgt>
<wgt id='1022'> +7.4651529e+04 </wgt>
<wgt id='1023'> +7.4249651e+04 </wgt>
<wgt id='1024'> +7.4312683e+04 </wgt>
<wgt id='1025'> +7.4582389e+04 </wgt>
<wgt id='1026'> +7.4082023e+04 </wgt>
<wgt id='1027'> +7.4143912e+04 </wgt>
<wgt id='1028'> +7.5069515e+04 </wgt>
<wgt id='1029'> +7.4957299e+04 </wgt>
<wgt id='1030'> +7.4312501e+04 </wgt>
<wgt id='1031'> +7.4850497e+04 </wgt>
<wgt id='1032'> +7.4296481e+04 </wgt>
<wgt id='1033'> +7.4628348e+04 </wgt>
<wgt id='1034'> +7.4647485e+04 </wgt>
<wgt id='1035'> +7.4382892e+04 </wgt>
<wgt id='1036'> +7.4687176e+04 </wgt>
<wgt id='1037'> +7.4060663e+04 </wgt>
<wgt id='1038'> +7.4500971e+04 </wgt>
<wgt id='1039'> +7.4432338e+04 </wgt>
<wgt id='1040'> +7.4346242e+04 </wgt>
<wgt id='1041'> +7.4286368e+04 </wgt>
<wgt id='1042'> +7.4577593e+04 </wgt>
<wgt id='1043'> +7.4565676e+04 </wgt>
<wgt id='1044'> +7.4512616e+04 </wgt>
<wgt id='1045'> +7.4471564e+04 </wgt>
<wgt id='1046'> +7.4420871e+04 </wgt>
<wgt id='1047'> +7.4416778e+04 </wgt>
<wgt id='1048'> +7.4287030e+04 </wgt>
<wgt id='1049'> +7.4473252e+04 </wgt>
<wgt id='1050'> +7.4424468e+04 </wgt>
<wgt id='1051'> +7.4457052e+04 </wgt>
<wgt id='1052'> +7.4440983e+04 </wgt>
<wgt id='1053'> +7.4591275e+04 </wgt>
<wgt id='1054'> +7.4543061e+04 </wgt>
<wgt id='1055'> +7.4360685e+04 </wgt>
<wgt id='1056'> +7.4584790e+04 </wgt>
<wgt id='1057'> +7.4526280e+04 </wgt>
<wgt id='1058'> +7.4484730e+04 </wgt>
<wgt id='1059'> +7.4515603e+04 </wgt>
<wgt id='1060'> +7.4605763e+04 </wgt>
<wgt id='1061'> +7.4520787e+04 </wgt>
<wgt id='1062'> +7.4568881e+04 </wgt>
<wgt id='1063'> +7.4565576e+04 </wgt>
<wgt id='1064'> +7.4650257e+04 </wgt>
<wgt id='1065'> +7.4599798e+04 </wgt>
<wgt id='1066'> +7.4435441e+04 </wgt>
<wgt id='1067'> +7.4485587e+04 </wgt>
<wgt id='1068'> +7.4581718e+04 </wgt>
<wgt id='1069'> +7.4432489e+04 </wgt>
<wgt id='1070'> +7.4547415e+04 </wgt>
<wgt id='1071'> +7.4552117e+04 </wgt>
<wgt id='1072'> +7.4419392e+04 </wgt>
<wgt id='1073'> +7.4492400e+04 </wgt>
<wgt id='1074'> +7.4616610e+04 </wgt>
<wgt id='1075'> +7.4565940e+04 </wgt>
<wgt id='1076'> +7.4578207e+04 </wgt>
<wgt id='1077'> +7.4421759e+04 </wgt>
<wgt id='1078'> +7.4502240e+04 </wgt>
<wgt id='1079'> +7.4536307e+04 </wgt>
<wgt id='1080'> +7.4523811e+04 </wgt>
<wgt id='1081'> +7.4515087e+04 </wgt>
<wgt id='1082'> +7.4589059e+04 </wgt>
<wgt id='1083'> +7.4457750e+04 </wgt>
<wgt id='1084'> +7.4492255e+04 </wgt>
<wgt id='1085'> +7.4464778e+04 </wgt>
<wgt id='1086'> +7.4534527e+04 </wgt>
<wgt id='1087'> +7.4586796e+04 </wgt>
<wgt id='1088'> +7.4467387e+04 </wgt>
<wgt id='1089'> +7.4433862e+04 </wgt>
<wgt id='1090'> +7.4601754e+04 </wgt>
<wgt id='1091'> +7.4423715e+04 </wgt>
<wgt id='1092'> +7.4445084e+04 </wgt>
<wgt id='1093'> +7.4510300e+04 </wgt>
<wgt id='1094'> +7.4536043e+04 </wgt>
<wgt id='1095'> +7.4548294e+04 </wgt>
<wgt id='1096'> +7.4514964e+04 </wgt>
<wgt id='1097'> +7.4516971e+04 </wgt>
<wgt id='1098'> +7.4576822e+04 </wgt>
<wgt id='1099'> +7.4521131e+04 </wgt>
<wgt id='1100'> +7.4534684e+04 </wgt>
<wgt id='1101'> +7.4570796e+04 </wgt>
<wgt id='1102'> +7.4551812e+04 </wgt>
<wgt id='1103'> +7.4535115e+04 </wgt>
<wgt id='1104'> +7.4442839e+04 </wgt>
<wgt id='1105'> +7.4482839e+04 </wgt>
<wgt id='1106'> +7.4487072e+04 </wgt>
<wgt id='1107'> +7.4563194e+04 </wgt>
<wgt id='1108'> +7.4526748e+04 </wgt>
<wgt id='1109'> +7.4468390e+04 </wgt>
<wgt id='1110'> +7.4519527e+04 </wgt>
<wgt id='1111'> +7.2664727e+04 </wgt>
<wgt id='1112'> +7.6091319e+04 </wgt>
<wgt id='1113'> +7.4519527e+04 </wgt>
<wgt id='1114'> +7.2719998e+04 </wgt>
<wgt id='1115'> +7.5542863e+04 </wgt>
<wgt id='1116'> +7.5432088e+04 </wgt>
<wgt id='1117'> +7.4395196e+04 </wgt>
<wgt id='1118'> +7.4578060e+04 </wgt>
<wgt id='1119'> +7.1936480e+04 </wgt>
<wgt id='1120'> +7.5156792e+04 </wgt>
<wgt id='1121'> +7.5462079e+04 </wgt>
<wgt id='1122'> +7.6779622e+04 </wgt>
<wgt id='1123'> +7.6135999e+04 </wgt>
<wgt id='1124'> +7.4418830e+04 </wgt>
<wgt id='1125'> +7.3689333e+04 </wgt>
<wgt id='1126'> +7.4056712e+04 </wgt>
<wgt id='1127'> +7.3590278e+04 </wgt>
<wgt id='1128'> +7.6122334e+04 </wgt>
<wgt id='1129'> +7.5638549e+04 </wgt>
<wgt id='1130'> +7.6964220e+04 </wgt>
<wgt id='1131'> +7.4121485e+04 </wgt>
<wgt id='1132'> +7.3908349e+04 </wgt>
<wgt id='1133'> +7.6002423e+04 </wgt>
<wgt id='1134'> +7.5036574e+04 </wgt>
<wgt id='1135'> +7.5295693e+04 </wgt>
<wgt id='1136'> +7.4758227e+04 </wgt>
<wgt id='1137'> +7.4350755e+04 </wgt>
<wgt id='1138'> +7.4341260e+04 </wgt>
<wgt id='1139'> +7.5882985e+04 </wgt>
<wgt id='1140'> +7.4389450e+04 </wgt>
<wgt id='1141'> +7.2573063e+04 </wgt>
<wgt id='1142'> +7.4617737e+04 </wgt>
<wgt id='1143'> +7.5503548e+04 </wgt>
<wgt id='1144'> +7.5611611e+04 </wgt>
<wgt id='1145'> +7.4811663e+04 </wgt>
<wgt id='1146'> +7.2668453e+04 </wgt>
<wgt id='1147'> +7.3010652e+04 </wgt>
<wgt id='1148'> +7.5606632e+04 </wgt>
<wgt id='1149'> +7.3533604e+04 </wgt>
<wgt id='1150'> +7.5849636e+04 </wgt>
<wgt id='1151'> +7.4293575e+04 </wgt>
<wgt id='1152'> +7.3915645e+04 </wgt>
<wgt id='1153'> +7.3759240e+04 </wgt>
<wgt id='1154'> +7.3718525e+04 </wgt>
<wgt id='1155'> +7.1263254e+04 </wgt>
<wgt id='1156'> +7.3324766e+04 </wgt>
<wgt id='1157'> +7.1975109e+04 </wgt>
<wgt id='1158'> +7.3822817e+04 </wgt>
<wgt id='1159'> +7.4505292e+04 </wgt>
<wgt id='1160'> +7.0929494e+04 </wgt>
<wgt id='1161'> +7.4179914e+04 </wgt>
<wgt id='1162'> +7.4460738e+04 </wgt>
<wgt id='1163'> +7.5164965e+04 </wgt>
<wgt id='1164'> +7.3535585e+04 </wgt>
<wgt id='1165'> +7.5965182e+04 </wgt>
<wgt id='1166'> +7.3894265e+04 </wgt>
<wgt id='1167'> +7.4190693e+04 </wgt>
<wgt id='1168'> +7.3161799e+04 </wgt>
<wgt id='1169'> +7.3911552e+04 </wgt>
<wgt id='1170'> +7.4749582e+04 </wgt>
<wgt id='1171'> +7.4534004e+04 </wgt>
<wgt id='1172'> +7.6027649e+04 </wgt>
<wgt id='1173'> +7.5778532e+04 </wgt>
<wgt id='1174'> +7.4525022e+04 </wgt>
<wgt id='1175'> +7.5247597e+04 </wgt>
<wgt id='1176'> +7.3075592e+04 </wgt>
<wgt id='1177'> +7.4049315e+04 </wgt>
<wgt id='1178'> +7.4034214e+04 </wgt>
<wgt id='1179'> +7.2697327e+04 </wgt>
<wgt id='1180'> +7.1431608e+04 </wgt>
<wgt id='1181'> +7.7054402e+04 </wgt>
<wgt id='1182'> +7.3573430e+04 </wgt>
<wgt id='1183'> +7.4904039e+04 </wgt>
<wgt id='1184'> +7.6975747e+04 </wgt>
<wgt id='1185'> +7.5556016e+04 </wgt>
<wgt id='1186'> +7.7005563e+04 </wgt>
<wgt id='1187'> +7.7002492e+04 </wgt>
<wgt id='1188'> +7.4570214e+04 </wgt>
<wgt id='1189'> +7.3072298e+04 </wgt>
<wgt id='1190'> +7.5876643e+04 </wgt>
<wgt id='1191'> +7.4359212e+04 </wgt>
<wgt id='1192'> +7.4500374e+04 </wgt>
<wgt id='1193'> +7.2445417e+04 </wgt>
<wgt id='1194'> +7.2867584e+04 </wgt>
<wgt id='1195'> +7.5638549e+04 </wgt>
<wgt id='1196'> +7.2894316e+04 </wgt>
<wgt id='1197'> +7.5741465e+04 </wgt>
<wgt id='1198'> +7.7034638e+04 </wgt>
<wgt id='1199'> +7.1144956e+04 </wgt>
<wgt id='1200'> +7.3027838e+04 </wgt>
<wgt id='1201'> +7.4266114e+04 </wgt>
<wgt id='1202'> +7.7459995e+04 </wgt>
<wgt id='1203'> +7.3270867e+04 </wgt>
<wgt id='1204'> +7.3026886e+04 </wgt>
<wgt id='1205'> +7.5277047e+04 </wgt>
<wgt id='1206'> +7.5537979e+04 </wgt>
<wgt id='1207'> +7.4783391e+04 </wgt>
<wgt id='1208'> +7.4958802e+04 </wgt>
<wgt id='1209'> +7.3513502e+04 </wgt>
<wgt id='1210'> +7.2938293e+04 </wgt>
<wgt id='1211'> +7.7018904e+04 </wgt>
<wgt id='1212'> +7.6393492e+04 </wgt>
<wgt id='1213'> +7.7786409e+04 </wgt>
<wgt id='1214'> +7.4419629e+04 </wgt>
<wgt id='1215'> +6.5616242e+04 </wgt>
<wgt id='1216'> +6.7263974e+04 </wgt>
<wgt id='1217'> +6.9059453e+04 </wgt>
<wgt id='1218'> +7.0884685e+04 </wgt>
<wgt id='1219'> +7.3675346e+04 </wgt>
<wgt id='1220'> +7.5385809e+04 </wgt>
<wgt id='1221'> +7.7863043e+04 </wgt>
<wgt id='1222'> +7.9452147e+04 </wgt>
<wgt id='1223'> +7.3270814e+04 </wgt>
<wgt id='1224'> +7.3471061e+04 </wgt>
<wgt id='1225'> +7.2990053e+04 </wgt>
<wgt id='1226'> +7.3502763e+04 </wgt>
<wgt id='1227'> +7.3342304e+04 </wgt>
<wgt id='1228'> +7.3503974e+04 </wgt>
<wgt id='1229'> +7.3357815e+04 </wgt>
<wgt id='1230'> +7.3181032e+04 </wgt>
<wgt id='1231'> +7.3043108e+04 </wgt>
<wgt id='1232'> +7.2796155e+04 </wgt>
<wgt id='1233'> +7.3011508e+04 </wgt>
<wgt id='1234'> +7.3526282e+04 </wgt>
<wgt id='1235'> +7.3756144e+04 </wgt>
<wgt id='1236'> +7.2705393e+04 </wgt>
<wgt id='1237'> +7.3499395e+04 </wgt>
<wgt id='1238'> +7.3442787e+04 </wgt>
<wgt id='1239'> +7.3397462e+04 </wgt>
<wgt id='1240'> +7.3527748e+04 </wgt>
<wgt id='1241'> +7.3330413e+04 </wgt>
<wgt id='1242'> +7.2924788e+04 </wgt>
<wgt id='1243'> +7.3160232e+04 </wgt>
<wgt id='1244'> +7.2962913e+04 </wgt>
<wgt id='1245'> +7.3227752e+04 </wgt>
<wgt id='1246'> +7.3209552e+04 </wgt>
<wgt id='1247'> +7.2980047e+04 </wgt>
<wgt id='1248'> +7.3444101e+04 </wgt>
<wgt id='1249'> +7.3386292e+04 </wgt>
<wgt id='1250'> +7.3082848e+04 </wgt>
<wgt id='1251'> +7.3253397e+04 </wgt>
<wgt id='1252'> +7.2916055e+04 </wgt>
<wgt id='1253'> +7.3314371e+04 </wgt>
<wgt id='1254'> +7.3224647e+04 </wgt>
<wgt id='1255'> +7.3434367e+04 </wgt>
<wgt id='1256'> +7.3236398e+04 </wgt>
<wgt id='1257'> +7.3090249e+04 </wgt>
<wgt id='1258'> +7.3217473e+04 </wgt>
<wgt id='1259'> +7.3256540e+04 </wgt>
<wgt id='1260'> +7.3263495e+04 </wgt>
<wgt id='1261'> +7.3233768e+04 </wgt>
<wgt id='1262'> +7.3421008e+04 </wgt>
<wgt id='1263'> +7.3266344e+04 </wgt>
<wgt id='1264'> +7.3347404e+04 </wgt>
<wgt id='1265'> +7.3342149e+04 </wgt>
<wgt id='1266'> +7.3298365e+04 </wgt>
<wgt id='1267'> +7.3334801e+04 </wgt>
<wgt id='1268'> +7.3194305e+04 </wgt>
<wgt id='1269'> +7.3193183e+04 </wgt>
<wgt id='1270'> +7.3314735e+04 </wgt>
<wgt id='1271'> +7.3350047e+04 </wgt>
<wgt id='1272'> +7.3256933e+04 </wgt>
<wgt id='1273'> +7.3249587e+04 </wgt>
<wgt id='1274'> +7.3285303e+04 </wgt>
<wgt id='1275'> +7.3373601e+04 </wgt>
<wgt id='1276'> +7.3251047e+04 </wgt>
<wgt id='1277'> +7.3317527e+04 </wgt>
<wgt id='1278'> +7.3288616e+04 </wgt>
<wgt id='1279'> +7.3289307e+04 </wgt>
<wgt id='1280'> +7.3269247e+04 </wgt>
<wgt id='1281'> +7.3190723e+04 </wgt>
<wgt id='1282'> +7.3295162e+04 </wgt>
<wgt id='1283'> +7.3270715e+04 </wgt>
<wgt id='1284'> +7.3289765e+04 </wgt>
<wgt id='1285'> +7.3262937e+04 </wgt>
<wgt id='1286'> +7.3282104e+04 </wgt>
<wgt id='1287'> +7.3248604e+04 </wgt>
<wgt id='1288'> +7.3299078e+04 </wgt>
<wgt id='1289'> +7.3223472e+04 </wgt>
<wgt id='1290'> +7.3261570e+04 </wgt>
<wgt id='1291'> +7.3322083e+04 </wgt>
<wgt id='1292'> +7.3274616e+04 </wgt>
<wgt id='1293'> +7.3250180e+04 </wgt>
<wgt id='1294'> +7.3272729e+04 </wgt>
<wgt id='1295'> +7.3287244e+04 </wgt>
<wgt id='1296'> +7.3238586e+04 </wgt>
<wgt id='1297'> +7.3237048e+04 </wgt>
<wgt id='1298'> +7.3260876e+04 </wgt>
<wgt id='1299'> +7.3254375e+04 </wgt>
<wgt id='1300'> +7.3214655e+04 </wgt>
<wgt id='1301'> +7.3276917e+04 </wgt>
<wgt id='1302'> +7.3303241e+04 </wgt>
<wgt id='1303'> +7.3325163e+04 </wgt>
<wgt id='1304'> +7.3305548e+04 </wgt>
<wgt id='1305'> +7.3313880e+04 </wgt>
<wgt id='1306'> +7.3281606e+04 </wgt>
<wgt id='1307'> +7.3264903e+04 </wgt>
<wgt id='1308'> +7.3267957e+04 </wgt>
<wgt id='1309'> +7.3277970e+04 </wgt>
<wgt id='1310'> +7.3296106e+04 </wgt>
<wgt id='1311'> +7.3300146e+04 </wgt>
<wgt id='1312'> +7.3243460e+04 </wgt>
<wgt id='1313'> +7.3272599e+04 </wgt>
<wgt id='1314'> +7.3279053e+04 </wgt>
<wgt id='1315'> +7.3277645e+04 </wgt>
<wgt id='1316'> +7.3248491e+04 </wgt>
<wgt id='1317'> +7.3278503e+04 </wgt>
<wgt id='1318'> +7.3261989e+04 </wgt>
<wgt id='1319'> +7.3279794e+04 </wgt>
<wgt id='1320'> +7.3269864e+04 </wgt>
<wgt id='1321'> +7.3300721e+04 </wgt>
<wgt id='1322'> +7.3255104e+04 </wgt>
<wgt id='1323'> +7.3232860e+04 </wgt>
<wgt id='1324'> +7.1601867e+04 </wgt>
<wgt id='1325'> +7.5290105e+04 </wgt>
<wgt id='1326'> +7.5155392e+04 </wgt>
<wgt id='1327'> +7.6637066e+04 </wgt>
<wgt id='1328'> +7.3430414e+04 </wgt>
<wgt id='1329'> +7.3503940e+04 </wgt>
<wgt id='1330'> +7.3934929e+04 </wgt>
<wgt id='1331'> +7.2750182e+04 </wgt>
<wgt id='1332'> +7.3648612e+04 </wgt>
<wgt id='1333'> +7.3217372e+04 </wgt>
<wgt id='1334'> +7.3569245e+04 </wgt>
<wgt id='1335'> +7.4660552e+04 </wgt>
<wgt id='1336'> +7.3906982e+04 </wgt>
<wgt id='1337'> +7.3866645e+04 </wgt>
<wgt id='1338'> +7.2784865e+04 </wgt>
<wgt id='1339'> +7.5501796e+04 </wgt>
<wgt id='1340'> +7.3911541e+04 </wgt>
<wgt id='1341'> +7.2700623e+04 </wgt>
<wgt id='1342'> +7.2901876e+04 </wgt>
<wgt id='1343'> +7.3013695e+04 </wgt>
<wgt id='1344'> +7.2181203e+04 </wgt>
<wgt id='1345'> +7.3565014e+04 </wgt>
<wgt id='1346'> +7.2735232e+04 </wgt>
<wgt id='1347'> +7.4466084e+04 </wgt>
<wgt id='1348'> +7.2608535e+04 </wgt>
<wgt id='1349'> +7.3286462e+04 </wgt>
<wgt id='1350'> +7.2122720e+04 </wgt>
<wgt id='1351'> +7.4076773e+04 </wgt>
<wgt id='1352'> +7.2732810e+04 </wgt>
<wgt id='1353'> +7.2671449e+04 </wgt>
<wgt id='1354'> +7.2502740e+04 </wgt>
<wgt id='1355'> +7.2437972e+04 </wgt>
<wgt id='1356'> +7.3463519e+04 </wgt>
<wgt id='1357'> +7.2966916e+04 </wgt>
<wgt id='1358'> +7.2960611e+04 </wgt>
<wgt id='1359'> +7.3478015e+04 </wgt>
<wgt id='1360'> +7.3645028e+04 </wgt>
<wgt id='1361'> +7.3076005e+04 </wgt>
<wgt id='1362'> +7.4299359e+04 </wgt>
<wgt id='1363'> +7.3486997e+04 </wgt>
<wgt id='1364'> +7.2336860e+04 </wgt>
<wgt id='1365'> +7.3624916e+04 </wgt>
<wgt id='1366'> +7.3752208e+04 </wgt>
<wgt id='1367'> +7.3423287e+04 </wgt>
<wgt id='1368'> +7.4609260e+04 </wgt>
<wgt id='1369'> +7.3082052e+04 </wgt>
<wgt id='1370'> +7.2463830e+04 </wgt>
<wgt id='1371'> +7.4495795e+04 </wgt>
<wgt id='1372'> +7.4467786e+04 </wgt>
<wgt id='1373'> +7.3895095e+04 </wgt>
<wgt id='1374'> +7.2839801e+04 </wgt>
<wgt id='1375'> +7.3055445e+04 </wgt>
<wgt id='1376'> +7.3194696e+04 </wgt>
<wgt id='1377'> +7.4433556e+04 </wgt>
<wgt id='1378'> +7.3995695e+04 </wgt>
<wgt id='1379'> +7.3775511e+04 </wgt>
<wgt id='1380'> +7.2879017e+04 </wgt>
<wgt id='1381'> +7.4368148e+04 </wgt>
<wgt id='1382'> +7.3977285e+04 </wgt>
<wgt id='1383'> +7.3376438e+04 </wgt>
<wgt id='1384'> +7.2113827e+04 </wgt>
<wgt id='1385'> +7.3470489e+04 </wgt>
<wgt id='1386'> +7.3612066e+04 </wgt>
<wgt id='1387'> +7.3480620e+04 </wgt>
<wgt id='1388'> +7.3210543e+04 </wgt>
<wgt id='1389'> +7.3019003e+04 </wgt>
<wgt id='1390'> +7.2153646e+04 </wgt>
<wgt id='1391'> +7.2518478e+04 </wgt>
<wgt id='1392'> +7.3665869e+04 </wgt>
<wgt id='1393'> +7.5275168e+04 </wgt>
<wgt id='1394'> +7.3624916e+04 </wgt>
<wgt id='1395'> +7.2677946e+04 </wgt>
<wgt id='1396'> +7.4434134e+04 </wgt>
<wgt id='1397'> +7.4227703e+04 </wgt>
<wgt id='1398'> +7.3896937e+04 </wgt>
<wgt id='1399'> +7.3583789e+04 </wgt>
<wgt id='1400'> +7.3710480e+04 </wgt>
<wgt id='1401'> +7.4052707e+04 </wgt>
<wgt id='1402'> +7.3344774e+04 </wgt>
<wgt id='1403'> +7.2269613e+04 </wgt>
<wgt id='1404'> +7.4307518e+04 </wgt>
<wgt id='1405'> +7.4694760e+04 </wgt>
<wgt id='1406'> +7.3533237e+04 </wgt>
<wgt id='1407'> +7.3380685e+04 </wgt>
<wgt id='1408'> +7.2844742e+04 </wgt>
<wgt id='1409'> +7.2665162e+04 </wgt>
<wgt id='1410'> +7.4924243e+04 </wgt>
<wgt id='1411'> +7.2847922e+04 </wgt>
<wgt id='1412'> +7.3545671e+04 </wgt>
<wgt id='1413'> +7.3089629e+04 </wgt>
<wgt id='1414'> +7.2997290e+04 </wgt>
<wgt id='1415'> +7.3156501e+04 </wgt>
<wgt id='1416'> +7.4387443e+04 </wgt>
<wgt id='1417'> +7.3822874e+04 </wgt>
<wgt id='1418'> +7.3243313e+04 </wgt>
<wgt id='1419'> +7.3944586e+04 </wgt>
<wgt id='1420'> +7.3304247e+04 </wgt>
<wgt id='1421'> +7.2070996e+04 </wgt>
<wgt id='1422'> +7.3070485e+04 </wgt>
<wgt id='1423'> +7.3767813e+04 </wgt>
<wgt id='1424'> +7.2851172e+04 </wgt>
<wgt id='1425'> +7.4012409e+04 </wgt>
<wgt id='1426'> +7.3615459e+04 </wgt>
<wgt id='1427'> +7.2970037e+04 </wgt>
<wgt id='1428'> +7.2951140e+04 </wgt>
<wgt id='1429'> +7.2216300e+04 </wgt>
<wgt id='1430'> +7.4692565e+04 </wgt>
<wgt id='1431'> +7.3447748e+04 </wgt>
<wgt id='1432'> +7.3466724e+04 </wgt>
<wgt id='1433'> +7.3841448e+04 </wgt>
<wgt id='1434'> +7.3500730e+04 </wgt>
<wgt id='1435'> +7.3709304e+04 </wgt>
<wgt id='1436'> +7.3305538e+04 </wgt>
<wgt id='1437'> +7.3281679e+04 </wgt>
<wgt id='1438'> +7.3482011e+04 </wgt>
<wgt id='1439'> +7.3331473e+04 </wgt>
<wgt id='1440'> +7.3670435e+04 </wgt>
<wgt id='1441'> +7.3629603e+04 </wgt>
<wgt id='1442'> +7.3336502e+04 </wgt>
<wgt id='1443'> +7.3553390e+04 </wgt>
<wgt id='1444'> +7.3517829e+04 </wgt>
<wgt id='1445'> +7.3547281e+04 </wgt>
<wgt id='1446'> +7.3674719e+04 </wgt>
<wgt id='1447'> +7.3295714e+04 </wgt>
<wgt id='1448'> +7.3503648e+04 </wgt>
<wgt id='1449'> +7.3318605e+04 </wgt>
<wgt id='1450'> +7.3523089e+04 </wgt>
<wgt id='1451'> +7.3512959e+04 </wgt>
<wgt id='1452'> +7.3400516e+04 </wgt>
<wgt id='1453'> +7.3452275e+04 </wgt>
<wgt id='1454'> +7.3377542e+04 </wgt>
<wgt id='1455'> +7.3476074e+04 </wgt>
<wgt id='1456'> +7.3455193e+04 </wgt>
<wgt id='1457'> +7.3465947e+04 </wgt>
<wgt id='1458'> +7.3401550e+04 </wgt>
<wgt id='1459'> +7.3420862e+04 </wgt>
<wgt id='1460'> +7.3429971e+04 </wgt>
<wgt id='1461'> +7.3399998e+04 </wgt>
<wgt id='1462'> +7.3438686e+04 </wgt>
<wgt id='1463'> +7.3454901e+04 </wgt>
<wgt id='1464'> +7.3469109e+04 </wgt>
<wgt id='1465'> +7.3423264e+04 </wgt>
<wgt id='1466'> +7.3368357e+04 </wgt>
<wgt id='1467'> +7.3436622e+04 </wgt>
<wgt id='1468'> +7.3437429e+04 </wgt>
<wgt id='1469'> +7.3453836e+04 </wgt>
<wgt id='1470'> +7.3435072e+04 </wgt>
<wgt id='1471'> +7.3472997e+04 </wgt>
<wgt id='1472'> +7.3454718e+04 </wgt>
<wgt id='1473'> +7.3444831e+04 </wgt>
<wgt id='1474'> +7.3437558e+04 </wgt>
<wgt id='1475'> +7.3455968e+04 </wgt>
<wgt id='1476'> +7.3416177e+04 </wgt>
<wgt id='1477'> +7.3461515e+04 </wgt>
<wgt id='1478'> +7.3460646e+04 </wgt>
<wgt id='1479'> +7.3453480e+04 </wgt>
<wgt id='1480'> +7.3459544e+04 </wgt>
<wgt id='1481'> +7.3439559e+04 </wgt>
<wgt id='1482'> +7.2216300e+04 </wgt>
<wgt id='1483'> +7.4692565e+04 </wgt>
<wgt id='1484'> +7.1466282e+04 </wgt>
<wgt id='1485'> +7.1020441e+04 </wgt>
<wgt id='1486'> +7.1277480e+04 </wgt>
<wgt id='1487'> +7.2223584e+04 </wgt>
<wgt id='1488'> +7.2906101e+04 </wgt>
<wgt id='1489'> +7.1576723e+04 </wgt>
<wgt id='1490'> +7.2104534e+04 </wgt>
<wgt id='1491'> +7.2027376e+04 </wgt>
<wgt id='1492'> +7.2273376e+04 </wgt>
<wgt id='1493'> +7.1644619e+04 </wgt>
<wgt id='1494'> +7.0417472e+04 </wgt>
<wgt id='1495'> +7.2522304e+04 </wgt>
<wgt id='1496'> +7.2119124e+04 </wgt>
<wgt id='1497'> +7.1317712e+04 </wgt>
<wgt id='1498'> +7.1067710e+04 </wgt>
<wgt id='1499'> +7.1333438e+04 </wgt>
<wgt id='1500'> +7.0602917e+04 </wgt>
<wgt id='1501'> +7.2515218e+04 </wgt>
<wgt id='1502'> +7.0564615e+04 </wgt>
<wgt id='1503'> +7.1133614e+04 </wgt>
<wgt id='1504'> +7.1715112e+04 </wgt>
<wgt id='1505'> +7.1111366e+04 </wgt>
<wgt id='1506'> +7.2444819e+04 </wgt>
<wgt id='1507'> +7.1246028e+04 </wgt>
<wgt id='1508'> +7.1460035e+04 </wgt>
<wgt id='1509'> +7.0495712e+04 </wgt>
<wgt id='1510'> +7.2078352e+04 </wgt>
<wgt id='1511'> +7.0856381e+04 </wgt>
<wgt id='1512'> +7.3387888e+04 </wgt>
<wgt id='1513'> +7.0873938e+04 </wgt>
<wgt id='1514'> +7.1544790e+04 </wgt>
<wgt id='1515'> +7.1670307e+04 </wgt>
<wgt id='1516'> +7.2013965e+04 </wgt>
<wgt id='1517'> +7.0569138e+04 </wgt>
<wgt id='1518'> +7.0828420e+04 </wgt>
<wgt id='1519'> +7.0405774e+04 </wgt>
<wgt id='1520'> +7.1368970e+04 </wgt>
<wgt id='1521'> +7.2370581e+04 </wgt>
<wgt id='1522'> +7.1055763e+04 </wgt>
<wgt id='1523'> +7.1661333e+04 </wgt>
<wgt id='1524'> +7.0924410e+04 </wgt>
<wgt id='1525'> +7.1188903e+04 </wgt>
<wgt id='1526'> +6.9931400e+04 </wgt>
<wgt id='1527'> +7.1815789e+04 </wgt>
<wgt id='1528'> +7.1097088e+04 </wgt>
<wgt id='1529'> +7.1745892e+04 </wgt>
<wgt id='1530'> +7.1095955e+04 </wgt>
<wgt id='1531'> +7.2138310e+04 </wgt>
<wgt id='1532'> +7.3060083e+04 </wgt>
<wgt id='1533'> +7.1752771e+04 </wgt>
<wgt id='1534'> +7.1239578e+04 </wgt>
<wgt id='1535'> +7.2944572e+04 </wgt>
<wgt id='1536'> +7.0974521e+04 </wgt>
<wgt id='1537'> +7.1492139e+04 </wgt>
<wgt id='1538'> +7.0956185e+04 </wgt>
<wgt id='1539'> +7.1858281e+04 </wgt>
<wgt id='1540'> +7.2630854e+04 </wgt>
<wgt id='1541'> +7.1446210e+04 </wgt>
<wgt id='1542'> +7.1358311e+04 </wgt>
<wgt id='1543'> +7.1062720e+04 </wgt>
<wgt id='1544'> +7.1378349e+04 </wgt>
<wgt id='1545'> +7.0826680e+04 </wgt>
<wgt id='1546'> +7.0720995e+04 </wgt>
<wgt id='1547'> +7.0546448e+04 </wgt>
<wgt id='1548'> +7.2243183e+04 </wgt>
<wgt id='1549'> +7.1323851e+04 </wgt>
<wgt id='1550'> +7.1862269e+04 </wgt>
<wgt id='1551'> +7.2373517e+04 </wgt>
<wgt id='1552'> +6.9166220e+04 </wgt>
<wgt id='1553'> +7.1629508e+04 </wgt>
<wgt id='1554'> +7.1929792e+04 </wgt>
<wgt id='1555'> +7.1576333e+04 </wgt>
<wgt id='1556'> +7.0361039e+04 </wgt>
<wgt id='1557'> +7.1542678e+04 </wgt>
<wgt id='1558'> +7.1379231e+04 </wgt>
<wgt id='1559'> +7.1443296e+04 </wgt>
<wgt id='1560'> +7.1622123e+04 </wgt>
<wgt id='1561'> +7.0974203e+04 </wgt>
<wgt id='1562'> +7.1302860e+04 </wgt>
<wgt id='1563'> +7.3030035e+04 </wgt>
<wgt id='1564'> +7.2004564e+04 </wgt>
<wgt id='1565'> +7.2032202e+04 </wgt>
<wgt id='1566'> +7.0602856e+04 </wgt>
<wgt id='1567'> +7.0556510e+04 </wgt>
<wgt id='1568'> +7.0421460e+04 </wgt>
<wgt id='1569'> +7.1304857e+04 </wgt>
<wgt id='1570'> +7.0203218e+04 </wgt>
<wgt id='1571'> +7.1033424e+04 </wgt>
<wgt id='1572'> +7.2973378e+04 </wgt>
<wgt id='1573'> +7.0783159e+04 </wgt>
<wgt id='1574'> +7.0775436e+04 </wgt>
<wgt id='1575'> +7.2807109e+04 </wgt>
<wgt id='1576'> +7.1438789e+04 </wgt>
<wgt id='1577'> +7.1416502e+04 </wgt>
<wgt id='1578'> +7.0678051e+04 </wgt>
<wgt id='1579'> +7.1273515e+04 </wgt>
<wgt id='1580'> +7.0843819e+04 </wgt>
<wgt id='1581'> +7.0993429e+04 </wgt>
<wgt id='1582'> +7.2659369e+04 </wgt>
<wgt id='1583'> +7.1237791e+04 </wgt>
<wgt id='1584'> +7.2954992e+04 </wgt>
<wgt id='1585'> +7.2547272e+04 </wgt>
<wgt id='1586'> +5.4749579e+04 </wgt>
<wgt id='1587'> +7.1132819e+04 </wgt>
<wgt id='1588'> +7.2216300e+04 </wgt>
<wgt id='1589'> +7.2900537e+04 </wgt>
<wgt id='1590'> +7.4124304e+04 </wgt>
<wgt id='1591'> +7.4692565e+04 </wgt>
<wgt id='1592'> +7.5918851e+04 </wgt>
<wgt id='1593'> +7.2870865e+04 </wgt>
<wgt id='1594'> +7.2950305e+04 </wgt>
<wgt id='1595'> +7.2625031e+04 </wgt>
<wgt id='1596'> +7.3688536e+04 </wgt>
<wgt id='1597'> +7.1399022e+04 </wgt>
<wgt id='1598'> +7.2074709e+04 </wgt>
<wgt id='1599'> +7.3315014e+04 </wgt>
<wgt id='1600'> +7.3517793e+04 </wgt>
<wgt id='1601'> +7.2143016e+04 </wgt>
<wgt id='1602'> +7.3052802e+04 </wgt>
<wgt id='1603'> +7.2937838e+04 </wgt>
<wgt id='1604'> +7.2935903e+04 </wgt>
<wgt id='1605'> +7.2718445e+04 </wgt>
<wgt id='1606'> +7.2374813e+04 </wgt>
<wgt id='1607'> +7.3313683e+04 </wgt>
<wgt id='1608'> +7.2725100e+04 </wgt>
<wgt id='1609'> +7.1931409e+04 </wgt>
<wgt id='1610'> +7.2804179e+04 </wgt>
<wgt id='1611'> +7.2928893e+04 </wgt>
<wgt id='1612'> +7.3013868e+04 </wgt>
<wgt id='1613'> +7.2445247e+04 </wgt>
<wgt id='1614'> +7.2687705e+04 </wgt>
<wgt id='1615'> +7.3140550e+04 </wgt>
<wgt id='1616'> +7.1770695e+04 </wgt>
<wgt id='1617'> +7.3397445e+04 </wgt>
<wgt id='1618'> +7.3147421e+04 </wgt>
<wgt id='1619'> +7.1979910e+04 </wgt>
<wgt id='1620'> +7.2400654e+04 </wgt>
<wgt id='1621'> +7.3073595e+04 </wgt>
<wgt id='1622'> +7.2090361e+04 </wgt>
<wgt id='1623'> +7.3425883e+04 </wgt>
<wgt id='1624'> +7.3194567e+04 </wgt>
<wgt id='1625'> +7.0831838e+04 </wgt>
<wgt id='1626'> +7.2041100e+04 </wgt>
<wgt id='1627'> +7.3663501e+04 </wgt>
<wgt id='1628'> +7.1908477e+04 </wgt>
<wgt id='1629'> +7.3526105e+04 </wgt>
<wgt id='1630'> +7.2651106e+04 </wgt>
<wgt id='1631'> +7.2672630e+04 </wgt>
<wgt id='1632'> +7.3334231e+04 </wgt>
<wgt id='1633'> +7.2284459e+04 </wgt>
<wgt id='1634'> +7.3154881e+04 </wgt>
<wgt id='1635'> +7.2694801e+04 </wgt>
<wgt id='1636'> +7.3158665e+04 </wgt>
<wgt id='1637'> +7.3165836e+04 </wgt>
<wgt id='1638'> +7.4454295e+04 </wgt>
<wgt id='1639'> +7.1979150e+04 </wgt>
<wgt id='1640'> +7.2259266e+04 </wgt>
<wgt id='1641'> +7.2701873e+04 </wgt>
<wgt id='1642'> +7.2661685e+04 </wgt>
<wgt id='1643'> +7.2870456e+04 </wgt>
<wgt id='1644'> +7.4596817e+04 </wgt>
<wgt id='1645'> +7.1093643e+04 </wgt>
<wgt id='1646'> +7.3297605e+04 </wgt>
<wgt id='1647'> +7.2764408e+04 </wgt>
<wgt id='1648'> +7.2838941e+04 </wgt>
<wgt id='1649'> +7.2691249e+04 </wgt>
<wgt id='1650'> +7.2900996e+04 </wgt>
<wgt id='1651'> +7.2809312e+04 </wgt>
<wgt id='1652'> +7.2986562e+04 </wgt>
<wgt id='1653'> +7.2959065e+04 </wgt>
<wgt id='1654'> +7.2734080e+04 </wgt>
<wgt id='1655'> +7.2571689e+04 </wgt>
<wgt id='1656'> +7.1266022e+04 </wgt>
<wgt id='1657'> +7.1287214e+04 </wgt>
<wgt id='1658'> +7.1155436e+04 </wgt>
<wgt id='1659'> +7.1418687e+04 </wgt>
<wgt id='1660'> +7.1231408e+04 </wgt>
<wgt id='1661'> +7.1397784e+04 </wgt>
<wgt id='1662'> +7.0933543e+04 </wgt>
<wgt id='1663'> +7.1139457e+04 </wgt>
<wgt id='1664'> +7.1248088e+04 </wgt>
<wgt id='1665'> +7.0867791e+04 </wgt>
<wgt id='1666'> +7.1431671e+04 </wgt>
<wgt id='1667'> +7.1735730e+04 </wgt>
<wgt id='1668'> +7.0828538e+04 </wgt>
<wgt id='1669'> +7.1252032e+04 </wgt>
<wgt id='1670'> +7.1268015e+04 </wgt>
<wgt id='1671'> +7.1289573e+04 </wgt>
<wgt id='1672'> +7.0876109e+04 </wgt>
<wgt id='1673'> +7.1099625e+04 </wgt>
<wgt id='1674'> +7.1402844e+04 </wgt>
<wgt id='1675'> +7.1166208e+04 </wgt>
<wgt id='1676'> +7.1210456e+04 </wgt>
<wgt id='1677'> +7.0640597e+04 </wgt>
<wgt id='1678'> +7.1547738e+04 </wgt>
<wgt id='1679'> +7.1879167e+04 </wgt>
<wgt id='1680'> +7.1531910e+04 </wgt>
<wgt id='1681'> +7.0216036e+04 </wgt>
<wgt id='1682'> +7.1749245e+04 </wgt>
<wgt id='1683'> +7.0486425e+04 </wgt>
<wgt id='1684'> +7.1916623e+04 </wgt>
<wgt id='1685'> +7.2025667e+04 </wgt>
<wgt id='1686'> +7.0697354e+04 </wgt>
<wgt id='1687'> +7.0633191e+04 </wgt>
<wgt id='1688'> +7.2165665e+04 </wgt>
<wgt id='1689'> +7.1138702e+04 </wgt>
<wgt id='1690'> +7.1735651e+04 </wgt>
<wgt id='1691'> +7.1369426e+04 </wgt>
<wgt id='1692'> +7.1071214e+04 </wgt>
<wgt id='1693'> +7.1300975e+04 </wgt>
<wgt id='1694'> +7.1686433e+04 </wgt>
<wgt id='1695'> +7.2218748e+04 </wgt>
<wgt id='1696'> +7.0396891e+04 </wgt>
<wgt id='1697'> +7.0634308e+04 </wgt>
<wgt id='1698'> +7.1982805e+04 </wgt>
<wgt id='1699'> +7.1659899e+04 </wgt>
<wgt id='1700'> +7.0338039e+04 </wgt>
<wgt id='1701'> +7.0471752e+04 </wgt>
<wgt id='1702'> +7.2346293e+04 </wgt>
<wgt id='1703'> +7.0967532e+04 </wgt>
<wgt id='1704'> +7.1600327e+04 </wgt>
<wgt id='1705'> +7.1186099e+04 </wgt>
<wgt id='1706'> +7.1207187e+04 </wgt>
<wgt id='1707'> +6.9051992e+04 </wgt>
<wgt id='1708'> +7.2546801e+04 </wgt>
<wgt id='1709'> +7.0251606e+04 </wgt>
<wgt id='1710'> +7.2347325e+04 </wgt>
<wgt id='1711'> +7.1166097e+04 </wgt>
<wgt id='1712'> +7.1037988e+04 </wgt>
<wgt id='1713'> +7.0403272e+04 </wgt>
<wgt id='1714'> +7.1475014e+04 </wgt>
<wgt id='1715'> +7.1894867e+04 </wgt>
<wgt id='1716'> +7.3167017e+04 </wgt>
<wgt id='1717'> +7.1892510e+04 </wgt>
<wgt id='1718'> +7.1919442e+04 </wgt>
<wgt id='1719'> +7.1857984e+04 </wgt>
<wgt id='1720'> +7.1906835e+04 </wgt>
<wgt id='1721'> +7.1879425e+04 </wgt>
<wgt id='1722'> +7.1889678e+04 </wgt>
<wgt id='1723'> +7.1897153e+04 </wgt>
<wgt id='1724'> +7.1967747e+04 </wgt>
<wgt id='1725'> +7.1831317e+04 </wgt>
<wgt id='1726'> +7.1949016e+04 </wgt>
<wgt id='1727'> +7.1834233e+04 </wgt>
<wgt id='1728'> +7.2018438e+04 </wgt>
<wgt id='1729'> +7.1771048e+04 </wgt>
<wgt id='1730'> +7.1721959e+04 </wgt>
<wgt id='1731'> +7.2014101e+04 </wgt>
<wgt id='1732'> +7.1660361e+04 </wgt>
<wgt id='1733'> +7.1660361e+04 </wgt>
<wgt id='1734'> +7.2307542e+04 </wgt>
<wgt id='1735'> +7.1610853e+04 </wgt>
<wgt id='1736'> +7.2274065e+04 </wgt>
<wgt id='1737'> +7.1371462e+04 </wgt>
<wgt id='1738'> +7.2034708e+04 </wgt>
<wgt id='1739'> +7.1666344e+04 </wgt>
<wgt id='1740'> +7.1725318e+04 </wgt>
<wgt id='1741'> +7.2294109e+04 </wgt>
<wgt id='1742'> +7.1378546e+04 </wgt>
<wgt id='1743'> +7.2479117e+04 </wgt>
<wgt id='1744'> +7.1883268e+04 </wgt>
<wgt id='1745'> +7.1916965e+04 </wgt>
<wgt id='1746'> +7.1781544e+04 </wgt>
<wgt id='1747'> +7.1949398e+04 </wgt>
<wgt id='1748'> +7.2050468e+04 </wgt>
<wgt id='1749'> +7.1372371e+04 </wgt>
<wgt id='1750'> +7.1967672e+04 </wgt>
<wgt id='1751'> +7.1812743e+04 </wgt>
<wgt id='1752'> +7.1881765e+04 </wgt>
<wgt id='1753'> +7.1910931e+04 </wgt>
<wgt id='1754'> +7.1968365e+04 </wgt>
<wgt id='1755'> +7.1852880e+04 </wgt>
<wgt id='1756'> +7.2010718e+04 </wgt>
<wgt id='1757'> +7.1624595e+04 </wgt>
<wgt id='1758'> +7.2027458e+04 </wgt>
<wgt id='1759'> +7.1718325e+04 </wgt>
<wgt id='1760'> +7.1760866e+04 </wgt>
<wgt id='1761'> +7.2096138e+04 </wgt>
<wgt id='1762'> +7.1825345e+04 </wgt>
<wgt id='1763'> +7.1606853e+04 </wgt>
<wgt id='1764'> +7.1873227e+04 </wgt>
<wgt id='1765'> +7.1987207e+04 </wgt>
<wgt id='1766'> +7.1902765e+04 </wgt>
<wgt id='1767'> +7.1889908e+04 </wgt>
<wgt id='1768'> +7.1983434e+04 </wgt>
<wgt id='1769'> +7.1785206e+04 </wgt>
<wgt id='1770'> +7.1582490e+04 </wgt>
<wgt id='1771'> +7.1996334e+04 </wgt>
<wgt id='1772'> +7.2001448e+04 </wgt>
<wgt id='1773'> +7.1950619e+04 </wgt>
<wgt id='1774'> +7.1783973e+04 </wgt>
<wgt id='1775'> +7.1965732e+04 </wgt>
<wgt id='1776'> +7.1947483e+04 </wgt>
<wgt id='1777'> +7.1886125e+04 </wgt>
<wgt id='1778'> +7.2037722e+04 </wgt>
<wgt id='1779'> +7.1825210e+04 </wgt>
<wgt id='1780'> +7.2067983e+04 </wgt>
<wgt id='1781'> +7.1886502e+04 </wgt>
<wgt id='1782'> +7.1892510e+04 </wgt>
<wgt id='1783'> +7.1934671e+04 </wgt>
<wgt id='1784'> +7.2514913e+04 </wgt>
<wgt id='1785'> +7.2961812e+04 </wgt>
<wgt id='1786'> +7.3156645e+04 </wgt>
<wgt id='1787'> +7.2579947e+04 </wgt>
<wgt id='1788'> +7.2276009e+04 </wgt>
<wgt id='1789'> +7.2541081e+04 </wgt>
<wgt id='1790'> +7.2789658e+04 </wgt>
<wgt id='1791'> +7.2552256e+04 </wgt>
<wgt id='1792'> +7.1171028e+04 </wgt>
<wgt id='1793'> +7.2896984e+04 </wgt>
<wgt id='1794'> +7.2083748e+04 </wgt>
<wgt id='1795'> +7.2655926e+04 </wgt>
<wgt id='1796'> +7.2651638e+04 </wgt>
<wgt id='1797'> +7.2404550e+04 </wgt>
<wgt id='1798'> +7.2678466e+04 </wgt>
<wgt id='1799'> +7.3053564e+04 </wgt>
<wgt id='1800'> +7.2480576e+04 </wgt>
<wgt id='1801'> +7.2531541e+04 </wgt>
<wgt id='1802'> +7.2551134e+04 </wgt>
<wgt id='1803'> +7.2480865e+04 </wgt>
<wgt id='1804'> +7.2656090e+04 </wgt>
<wgt id='1805'> +7.2549786e+04 </wgt>
<wgt id='1806'> +7.2408187e+04 </wgt>
<wgt id='1807'> +7.2522522e+04 </wgt>
<wgt id='1808'> +7.2541747e+04 </wgt>
<wgt id='1809'> +7.2638234e+04 </wgt>
<wgt id='1810'> +7.2575400e+04 </wgt>
<wgt id='1811'> +7.2563864e+04 </wgt>
<wgt id='1812'> +7.2487552e+04 </wgt>
<wgt id='1813'> +7.2559173e+04 </wgt>
<wgt id='1814'> +7.3059199e+04 </wgt>
<wgt id='1815'> +7.2409960e+04 </wgt>
<wgt id='1816'> +7.2551553e+04 </wgt>
<wgt id='1817'> +7.2444707e+04 </wgt>
<wgt id='1818'> +7.2639433e+04 </wgt>
<wgt id='1819'> +7.2505557e+04 </wgt>
<wgt id='1820'> +7.2658506e+04 </wgt>
<wgt id='1821'> +7.2531788e+04 </wgt>
<wgt id='1822'> +7.2528636e+04 </wgt>
<wgt id='1823'> +7.2651068e+04 </wgt>
<wgt id='1824'> +7.2484286e+04 </wgt>
<wgt id='1825'> +7.2185417e+04 </wgt>
<wgt id='1826'> +7.3283571e+04 </wgt>
<wgt id='1827'> +7.3905354e+04 </wgt>
<wgt id='1828'> +7.3840502e+04 </wgt>
<wgt id='1829'> +7.3960475e+04 </wgt>
<wgt id='1830'> +7.4078807e+04 </wgt>
<wgt id='1831'> +7.3722461e+04 </wgt>
<wgt id='1832'> +7.4101183e+04 </wgt>
<wgt id='1833'> +7.3700492e+04 </wgt>
<wgt id='1834'> +7.4191099e+04 </wgt>
<wgt id='1835'> +7.3616426e+04 </wgt>
<wgt id='1836'> +7.3929045e+04 </wgt>
<wgt id='1837'> +7.3873160e+04 </wgt>
<wgt id='1838'> +7.4075468e+04 </wgt>
<wgt id='1839'> +7.3725851e+04 </wgt>
<wgt id='1840'> +7.3677573e+04 </wgt>
<wgt id='1841'> +7.4127139e+04 </wgt>
<wgt id='1842'> +7.3851110e+04 </wgt>
<wgt id='1843'> +7.4007062e+04 </wgt>
<wgt id='1844'> +7.3818977e+04 </wgt>
<wgt id='1845'> +7.3963371e+04 </wgt>
<wgt id='1846'> +7.3815628e+04 </wgt>
<wgt id='1847'> +7.3976537e+04 </wgt>
<wgt id='1848'> +7.3274731e+04 </wgt>
<wgt id='1849'> +7.4400953e+04 </wgt>
<wgt id='1850'> +7.3855773e+04 </wgt>
<wgt id='1851'> +7.3928393e+04 </wgt>
<wgt id='1852'> +7.3681184e+04 </wgt>
<wgt id='1853'> +7.3905708e+04 </wgt>
<wgt id='1854'> +7.3909313e+04 </wgt>
<wgt id='1855'> +7.3987226e+04 </wgt>
<wgt id='1856'> +7.4991356e+04 </wgt>
<wgt id='1857'> +7.4969540e+04 </wgt>
<wgt id='1858'> +7.5018583e+04 </wgt>
<wgt id='1859'> +7.4998989e+04 </wgt>
<wgt id='1860'> +7.4988452e+04 </wgt>
<wgt id='1861'> +7.4757012e+04 </wgt>
<wgt id='1862'> +7.4918794e+04 </wgt>
<wgt id='1863'> +7.4836567e+04 </wgt>
<wgt id='1864'> +7.5131329e+04 </wgt>
<wgt id='1865'> +7.5294765e+04 </wgt>
<wgt id='1866'> +7.5010950e+04 </wgt>
<wgt id='1867'> +7.4953922e+04 </wgt>
<wgt id='1868'> +7.4947773e+04 </wgt>
<wgt id='1869'> +7.4806330e+04 </wgt>
<wgt id='1870'> +7.4877799e+04 </wgt>
<wgt id='1871'> +7.4880646e+04 </wgt>
<wgt id='1872'> +7.5030916e+04 </wgt>
<wgt id='1873'> +7.5017450e+04 </wgt>
<wgt id='1874'> +7.4966640e+04 </wgt>
<wgt id='1875'> +7.5107146e+04 </wgt>
<wgt id='1876'> +7.4741936e+04 </wgt>
<wgt id='1877'> +7.4986337e+04 </wgt>
<wgt id='1878'> +7.4500765e+04 </wgt>
<wgt id='1879'> +7.5080988e+04 </wgt>
<wgt id='1880'> +7.5166283e+04 </wgt>
<wgt id='1881'> +7.5266131e+04 </wgt>
<wgt id='1882'> +7.5172358e+04 </wgt>
<wgt id='1883'> +7.4837895e+04 </wgt>
<wgt id='1884'> +7.5074534e+04 </wgt>
<wgt id='1885'> +7.4472450e+04 </wgt>
<wgt id='1886'> +6.3633521e+04 </wgt>
<wgt id='1887'> +7.1818709e+04 </wgt>
<wgt id='1888'> +6.6375018e+04 </wgt>
<wgt id='1889'> +7.3541693e+04 </wgt>
</rwgt>
</event>
<event npLO=" -1 " npNLO=" 0 ">
 5      1 +7.4519530e+04 1.40292200e+01 7.55820760e-03 1.20167310e-01
        1 -1    0    0  501    0 +0.0000000000e+00 +0.0000000000e+00 +4.6979778391e+02 4.6979778391e+02 0.0000000000e+00 0.0000e+00 -1.0000e+00
       -2 -1    0    0    0  501 +0.0000000000e+00 +0.0000000000e+00 -3.3849729360e+00 3.3849729360e+00 0.0000000000e+00 0.0000e+00 1.0000e+00
      -24  2    1    2    0    0 +0.0000000000e+00 +0.0000000000e+00 +4.6641281097e+02 4.7318275684e+02 7.9755947338e+01 0.0000e+00 0.0000e+00
       11  1    3    3    0    0 +7.2784700112e+00 -3.7477425669e+01 +3.0155549730e+02 3.0396258242e+02 0.0000000000e+00 0.0000e+00 -1.0000e+00
      -12  1    3    3    0    0 -7.2784700112e+00 +3.7477425669e+01 +1.6485731367e+02 1.6922017442e+02 0.0000000000e+00 0.0000e+00 1.0000e+00
#aMCatNLO 1  0  0  1  2 0.15133250E+02 0.00000000E+00 -9  5  0 0.00000000E+00 0.00000000E+00 0.00000000E+00 0.00000000E+00 0.00000000E+00
<rwgt>
<wgt id='1001'> +7.4519530e+04 </wgt>
<wgt id='1002'> +7.2322992e+04 </wgt>
<wgt id='1003'> +7.7253872e+04 </wgt>
<wgt id='1004'> +9.7444046e+04 </wgt>
<wgt id='1005'> +9.3570770e+04 </wgt>
<wgt id='1006'> +1.0226795e+05 </wgt>
<wgt id='1007'> +5.4741628e+04 </wgt>
<wgt id='1008'> +5.3869214e+04 </wgt>
<wgt id='1009'> +5.5825936e+04 </wgt>
<wgt id='1010'> +7.4519530e+04 </wgt>
<wgt id='1011'> +7.4545914e+04 </wgt>
<wgt id='1012'> +7.4372986e+04 </wgt>
<wgt id='1013'> +7.4315202e+04 </wgt>
<wgt id='1014'> +7.4682694e+04 </wgt>
<wgt id='1015'> +7.4432494e+04 </wgt>
<wgt id='1016'> +7.4408771e+04 </wgt>
<wgt id='1017'> +7.4495433e+04 </wgt>
<wgt id='1018'> +7.4043217e+04 </wgt>
<wgt id='1019'> +7.4691429e+04 </wgt>
<wgt id='1020'> +7.4348590e+04 </wgt>
<wgt id='1021'> +7.4618285e+04 </wgt>
<wgt id='1022'> +7.4572169e+04 </wgt>
<wgt id='1023'> +7.4650139e+04 </wgt>
<wgt id='1024'> +7.4616418e+04 </wgt>
<wgt id='1025'> +7.5078455e+04 </wgt>
<wgt id='1026'> +7.4383222e+04 </wgt>
<wgt id='1027'> +7.4591897e+04 </wgt>
<wgt id='1028'> +7.4450544e+04 </wgt>
<wgt id='1029'> +7.4596064e+04 </wgt>
<wgt id='1030'> +7.4464994e+04 </wgt>
<wgt id='1031'> +7.4555266e+04 </wgt>
<wgt id='1032'> +7.4802780e+04 </wgt>
<wgt id='1033'> +7.4440009e+04 </wgt>
<wgt id='1034'> +7.4649097e+04 </wgt>
<wgt id='1035'> +7.4325185e+04 </wgt>
<wgt id='1036'> +7.4315351e+04 </wgt>
<wgt id='1037'> +7.5080177e+04 </wgt>
<wgt id='1038'> +7.4648367e+04 </wgt>
<wgt id='1039'> +7.4988902e+04 </wgt>
<wgt id='1040'> +7.4481181e+04 </wgt>
<wgt id='1041'> +7.5327003e+04 </wgt>
<wgt id='1042'> +7.4452211e+04 </wgt>
<wgt id='1043'> +7.4775931e+04 </wgt>
<wgt id='1044'> +7.4725550e+04 </wgt>
<wgt id='1045'> +7.4439345e+04 </wgt>
<wgt id='1046'> +7.4431551e+04 </wgt>
<wgt id='1047'> +7.4437825e+04 </wgt>
<wgt id='1048'> +7.4545212e+04 </wgt>
<wgt id='1049'> +7.4698404e+04 </wgt>
<wgt id='1050'> +7.4497214e+04 </wgt>
<wgt id='1051'> +7.4777962e+04 </wgt>
<wgt id='1052'> +7.4594610e+04 </wgt>
<wgt id='1053'> +7.4471901e+04 </wgt>
<wgt id='1054'> +7.4239385e+04 </wgt>
<wgt id='1055'> +7.4335430e+04 </wgt>
<wgt id='1056'> +7.4702398e+04 </wgt>
<wgt id='1057'> +7.4282487e+04 </wgt>
<wgt id='1058'> +7.4457782e+04 </wgt>
<wgt id='1059'> +7.4594306e+04 </wgt>
<wgt id='1060'> +7.4453520e+04 </wgt>
<wgt id='1061'> +7.4380242e+04 </wgt>
<wgt id='1062'> +7.4665235e+04 </wgt>
<wgt id='1063'> +7.4799983e+04 </wgt>
<wgt id='1064'> +7.4720893e+04 </wgt>
<wgt id='1065'> +7.4524735e+04 </wgt>
<wgt id='1066'> +7.4521077e+04 </wgt>
<wgt id='1067'> +7.4721772e+04 </wgt>
<wgt id='1068'> +7.4518338e+04 </wgt>
<wgt id='1069'> +7.4632935e+04 </wgt>
<wgt id='1070'> +7.4598169e+04 </wgt>
<wgt id='1071'> +7.4636285e+04 </wgt>
<wgt id='1072'> +7.4552641e+04 </wgt>
<wgt id='1073'> +7.4413357e+04 </wgt>
<wgt id='1074'> +7.4431855e+04 </wgt>
<wgt id='1075'> +7.4692900e+04 </wgt>
<wgt id='1076'> +7.4567670e+04 </wgt>
<wgt id='1077'> +7.4572515e+04 </wgt>
<wgt id='1078'> +7.4481620e+04 </wgt>
<wgt id='1079'> +7.4589512e+04 </wgt>
<wgt id='1080'> +7.4719299e+04 </wgt>
<wgt id='1081'> +7.4558670e+04 </wgt>
<wgt id='1082'> +7.4507157e+04 </wgt>
<wgt id='1083'> +7.4410847e+04 </wgt>
<wgt id='1084'> +7.4497672e+04 </wgt>
<wgt id='1085'> +7.4499985e+04 </wgt>
<wgt id='1086'> +7.4578702e+04 </wgt>
<wgt id='1087'> +7.4503961e+04 </wgt>
<wgt id='1088'> +7.4455833e+04 </wgt>
<wgt id='1089'> +7.4527004e+04 </wgt>
<wgt id='1090'> +7.4458018e+04 </wgt>
<wgt id='1091'> +7.4528876e+04 </wgt>
<wgt id='1092'> +7.4547568e+04 </wgt>
<wgt id='1093'> +7.4454598e+04 </wgt>
<wgt id='1094'> +7.4544007e+04 </wgt>
<wgt id='1095'> +7.4419333e+04 </wgt>
<wgt id='1096'> +7.4509545e+04 </wgt>
<wgt id='1097'> +7.4467748e+04 </wgt>
<wgt id='1098'> +7.4576267e+04 </wgt>
<wgt id='1099'> +7.4584124e+04 </wgt>
<wgt id='1100'> +7.4591662e+04 </wgt>
<wgt id='1101'> +7.4507971e+04 </wgt>
<wgt id='1102'> +7.4460293e+04 </wgt>
<wgt id='1103'> +7.4444336e+04 </wgt>
<wgt id='1104'> +7.4556304e+04 </wgt>
<wgt id='1105'> +7.4479354e+04 </wgt>
<wgt id='1106'> +7.4455543e+04 </wgt>
<wgt id='1107'> +7.4500510e+04 </wgt>
<wgt id='1108'> +7.4592338e+04 </wgt>
<wgt id='1109'> +7.4501510e+04 </wgt>
<wgt id='1110'> +7.4519530e+04 </wgt>
<wgt id='1111'> +7.3279476e+04 </wgt>
<wgt id='1112'> +7.5515605e+04 </wgt>
<wgt id='1113'> +7.4519530e+04 </wgt>
<wgt id='1114'> +7.8599280e+04 </wgt>
<wgt id='1115'> +7.5543312e+04 </wgt>
<wgt id='1116'> +7.2991882e+04 </wgt>
<wgt id='1117'> +7.2872545e+04 </wgt>
<wgt id='1118'> +7.4014718e+04 </wgt>
<wgt id='1119'> +7.5078269e+04 </wgt>
<wgt id='1120'> +7.6214457e+04 </wgt>
<wgt id='1121'> +7.4837227e+04 </wgt>
<wgt id='1122'> +7.4395061e+04 </wgt>
<wgt id='1123'> +7.1863966e+04 </wgt>
<wgt id='1124'> +7.3461834e+04 </wgt>
<wgt id='1125'> +7.2823967e+04 </wgt>
<wgt id='1126'> +7.3836312e+04 </wgt>
<wgt id='1127'> +7.5111994e+04 </wgt>
<wgt id='1128'> +7.5163862e+04 </wgt>
<wgt id='1129'> +7.3801547e+04 </wgt>
<wgt id='1130'> +7.5955213e+04 </wgt>
<wgt id='1131'> +7.4628940e+04 </wgt>
<wgt id='1132'> +7.5369481e+04 </wgt>
<wgt id='1133'> +7.3197239e+04 </wgt>
<wgt id='1134'> +7.5023487e+04 </wgt>
<wgt id='1135'> +7.5611155e+04 </wgt>
<wgt id='1136'> +7.6639271e+04 </wgt>
<wgt id='1137'> +7.2986880e+04 </wgt>
<wgt id='1138'> +7.4731972e+04 </wgt>
<wgt id='1139'> +7.5343523e+04 </wgt>
<wgt id='1140'> +7.7363438e+04 </wgt>
<wgt id='1141'> +7.5383163e+04 </wgt>
<wgt id='1142'> +7.4412034e+04 </wgt>
<wgt id='1143'> +7.7792941e+04 </wgt>
<wgt id='1144'> +7.5629415e+04 </wgt>
<wgt id='1145'> +7.3468835e+04 </wgt>
<wgt id='1146'> +7.5058866e+04 </wgt>
<wgt id='1147'> +7.2437022e+04 </wgt>
<wgt id='1148'> +7.3037846e+04 </wgt>
<wgt id='1149'> +7.4118665e+04 </wgt>
<wgt id='1150'> +7.3372523e+04 </wgt>
<wgt id='1151'> +7.3300044e+04 </wgt>
<wgt id='1152'> +7.3878706e+04 </wgt>
<wgt id='1153'> +7.2943329e+04 </wgt>
<wgt id='1154'> +7.4732398e+04 </wgt>
<wgt id='1155'> +7.5530828e+04 </wgt>
<wgt id='1156'> +7.5271888e+04 </wgt>
<wgt id='1157'> +7.5076494e+04 </wgt>
<wgt id='1158'> +7.4204922e+04 </wgt>
<wgt id='1159'> +7.2494406e+04 </wgt>
<wgt id='1160'> +7.4188636e+04 </wgt>
<wgt id='1161'> +7.6795173e+04 </wgt>
<wgt id='1162'> +7.7200855e+04 </wgt>
<wgt id='1163'> +7.3434583e+04 </wgt>
<wgt id='1164'> +7.5281977e+04 </wgt>
<wgt id='1165'> +7.4899741e+04 </wgt>
<wgt id='1166'> +7.5560453e+04 </wgt>
<wgt id='1167'> +7.6388163e+04 </wgt>
<wgt id='1168'> +7.5700562e+04 </wgt>
<wgt id='1169'> +7.5368728e+04 </wgt>
<wgt id='1170'> +7.6753350e+04 </wgt>
<wgt id='1171'> +7.5590424e+04 </wgt>
<wgt id='1172'> +7.6055077e+04 </wgt>
<wgt id='1173'> +7.6019509e+04 </wgt>
<wgt id='1174'> +7.3397603e+04 </wgt>
<wgt id='1175'> +7.3449301e+04 </wgt>
<wgt id='1176'> +7.3853075e+04 </wgt>
<wgt id='1177'> +7.3372961e+04 </wgt>
<wgt id='1178'> +7.4999096e+04 </wgt>
<wgt id='1179'> +7.7240996e+04 </wgt>
<wgt id='1180'> +7.3555816e+04 </wgt>
<wgt id='1181'> +7.5107433e+04 </wgt>
<wgt id='1182'> +7.3835052e+04 </wgt>
<wgt id='1183'> +7.4625818e+04 </wgt>
<wgt id='1184'> +7.4944289e+04 </wgt>
<wgt id='1185'> +7.7066632e+04 </wgt>
<wgt id='1186'> +7.1304459e+04 </wgt>
<wgt id='1187'> +7.1930455e+04 </wgt>
<wgt id='1188'> +7.3024464e+04 </wgt>
<wgt id='1189'> +7.5044724e+04 </wgt>
<wgt id='1190'> +7.1899090e+04 </wgt>
<wgt id='1191'> +7.6198105e+04 </wgt>
<wgt id='1192'> +7.2446115e+04 </wgt>
<wgt id='1193'> +7.2810430e+04 </wgt>
<wgt id='1194'> +7.4509869e+04 </wgt>
<wgt id='1195'> +7.3801547e+04 </wgt>
<wgt id='1196'> +7.1297342e+04 </wgt>
<wgt id='1197'> +7.4120610e+04 </wgt>
<wgt id='1198'> +7.2971009e+04 </wgt>
<wgt id='1199'> +7.9367759e+04 </wgt>
<wgt id='1200'> +7.3784866e+04 </wgt>
<wgt id='1201'> +7.4838507e+04 </wgt>
<wgt id='1202'> +6.6330699e+04 </wgt>
<wgt id='1203'> +7.2706006e+04 </wgt>
<wgt id='1204'> +7.6113547e+04 </wgt>
<wgt id='1205'> +7.3699577e+04 </wgt>
<wgt id='1206'> +7.5042872e+04 </wgt>
<wgt id='1207'> +7.6646877e+04 </wgt>
<wgt id='1208'> +7.4272020e+04 </wgt>
<wgt id='1209'> +7.5893340e+04 </wgt>
<wgt id='1210'> +7.3965895e+04 </wgt>
<wgt id='1211'> +7.4024319e+04 </wgt>
<wgt id='1212'> +7.4190906e+04 </wgt>
<wgt id='1213'> +7.5307633e+04 </wgt>
<wgt id='1214'> +7.4433458e+04 </wgt>
<wgt id='1215'> +7.0231205e+04 </wgt>
<wgt id='1216'> +7.0879254e+04 </wgt>
<wgt id='1217'> +7.1553618e+04 </wgt>
<wgt id='1218'> +7.2828634e+04 </wgt>
<wgt id='1219'> +7.4278830e+04 </wgt>
<wgt id='1220'> +7.5051440e+04 </wgt>
<wgt id='1221'> +7.6363689e+04 </wgt>
<wgt id='1222'> +7.7003000e+04 </wgt>
<wgt id='1223'> +7.3104179e+04 </wgt>
<wgt id='1224'> +7.2904370e+04 </wgt>
<wgt id='1225'> +7.3388178e+04 </wgt>
<wgt id='1226'> +7.2916744e+04 </wgt>
<wgt id='1227'> +7.3461733e+04 </wgt>
<wgt id='1228'> +7.3020067e+04 </wgt>
<wgt id='1229'> +7.2813732e+04 </wgt>
<wgt id='1230'> +7.3075356e+04 </wgt>
<wgt id='1231'> +7.3111218e+04 </wgt>
<wgt id='1232'> +7.3282505e+04 </wgt>
<wgt id='1233'> +7.2840203e+04 </wgt>
<wgt id='1234'> +7.2925585e+04 </wgt>
<wgt id='1235'> +7.3183965e+04 </wgt>
<wgt id='1236'> +7.3265504e+04 </wgt>
<wgt id='1237'> +7.3264864e+04 </wgt>
<wgt id='1238'> +7.2884823e+04 </wgt>
<wgt id='1239'> +7.3119870e+04 </wgt>
<wgt id='1240'> +7.3078732e+04 </wgt>
<wgt id='1241'> +7.3292850e+04 </wgt>
<wgt id='1242'> +7.3181183e+04 </wgt>
<wgt id='1243'> +7.2966645e+04 </wgt>
<wgt id='1244'> +7.3350398e+04 </wgt>
<wgt id='1245'> +7.3152473e+04 </wgt>
<wgt id='1246'> +7.3199670e+04 </wgt>
<wgt id='1247'> +7.3469241e+04 </wgt>
<wgt id='1248'> +7.2811099e+04 </wgt>
<wgt id='1249'> +7.3098440e+04 </wgt>
<wgt id='1250'> +7.3009963e+04 </wgt>
<wgt id='1251'> +7.3211900e+04 </wgt>
<wgt id='1252'> +7.3732176e+04 </wgt>
<wgt id='1253'> +7.2558831e+04 </wgt>
<wgt id='1254'> +7.2610276e+04 </wgt>
<wgt id='1255'> +7.3350154e+04 </wgt>
<wgt id='1256'> +7.3081026e+04 </wgt>
<wgt id='1257'> +7.2994198e+04 </wgt>
<wgt id='1258'> +7.3314349e+04 </wgt>
<wgt id='1259'> +7.3191878e+04 </wgt>
<wgt id='1260'> +7.2854983e+04 </wgt>
<wgt id='1261'> +7.3119208e+04 </wgt>
<wgt id='1262'> +7.3178504e+04 </wgt>
<wgt id='1263'> +7.3033139e+04 </wgt>
<wgt id='1264'> +7.3440689e+04 </wgt>
<wgt id='1265'> +7.3049025e+04 </wgt>
<wgt id='1266'> +7.3003416e+04 </wgt>
<wgt id='1267'> +7.3100121e+04 </wgt>
<wgt id='1268'> +7.2955081e+04 </wgt>
<wgt id='1269'> +7.3245751e+04 </wgt>
<wgt id='1270'> +7.3349322e+04 </wgt>
<wgt id='1271'> +7.3147475e+04 </wgt>
<wgt id='1272'> +7.2958819e+04 </wgt>
<wgt id='1273'> +7.3151854e+04 </wgt>
<wgt id='1274'> +7.3154940e+04 </wgt>
<wgt id='1275'> +7.3130291e+04 </wgt>
<wgt id='1276'> +7.2954366e+04 </wgt>
<wgt id='1277'> +7.2954828e+04 </wgt>
<wgt id='1278'> +7.3205962e+04 </wgt>
<wgt id='1279'> +7.2704903e+04 </wgt>
<wgt id='1280'> +7.3154003e+04 </wgt>
<wgt id='1281'> +7.2979878e+04 </wgt>
<wgt id='1282'> +7.3257472e+04 </wgt>
<wgt id='1283'> +7.3026408e+04 </wgt>
<wgt id='1284'> +7.3157286e+04 </wgt>
<wgt id='1285'> +7.3040837e+04 </wgt>
<wgt id='1286'> +7.3198153e+04 </wgt>
<wgt id='1287'> +7.2951754e+04 </wgt>
<wgt id='1288'> +7.3149991e+04 </wgt>
<wgt id='1289'> +7.3306580e+04 </wgt>
<wgt id='1290'> +7.3006065e+04 </wgt>
<wgt id='1291'> +7.3171228e+04 </wgt>
<wgt id='1292'> +7.3162870e+04 </wgt>
<wgt id='1293'> +7.3048762e+04 </wgt>
<wgt id='1294'> +7.3068794e+04 </wgt>
<wgt id='1295'> +7.3074197e+04 </wgt>
<wgt id='1296'> +7.3046432e+04 </wgt>
<wgt id='1297'> +7.3157852e+04 </wgt>
<wgt id='1298'> +7.3196905e+04 </wgt>
<wgt id='1299'> +7.3213304e+04 </wgt>
<wgt id='1300'> +7.3057600e+04 </wgt>
<wgt id='1301'> +7.3202068e+04 </wgt>
<wgt id='1302'> +7.3150544e+04 </wgt>
<wgt id='1303'> +7.3155098e+04 </wgt>
<wgt id='1304'> +7.3022209e+04 </wgt>
<wgt id='1305'> +7.3004412e+04 </wgt>
<wgt id='1306'> +7.2996873e+04 </wgt>
<wgt id='1307'> +7.3174439e+04 </wgt>
<wgt id='1308'> +7.2993285e+04 </wgt>
<wgt id='1309'> +7.3135098e+04 </wgt>
<wgt id='1310'> +7.3019306e+04 </wgt>
<wgt id='1311'> +7.3076890e+04 </wgt>
<wgt id='1312'> +7.3036927e+04 </wgt>
<wgt id='1313'> +7.3168169e+04 </wgt>
<wgt id='1314'> +7.3172137e+04 </wgt>
<wgt id='1315'> +7.3052846e+04 </wgt>
<wgt id='1316'> +7.3106424e+04 </wgt>
<wgt id='1317'> +7.3109933e+04 </wgt>
<wgt id='1318'> +7.3069961e+04 </wgt>
<wgt id='1319'> +7.3097208e+04 </wgt>
<wgt id='1320'> +7.2975085e+04 </wgt>
<wgt id='1321'> +7.3153288e+04 </wgt>
<wgt id='1322'> +7.3104077e+04 </wgt>
<wgt id='1323'> +7.3199536e+04 </wgt>
<wgt id='1324'> +7.2232830e+04 </wgt>
<wgt id='1325'> +7.4249949e+04 </wgt>
<wgt id='1326'> +7.2671602e+04 </wgt>
<wgt id='1327'> +6.9008728e+04 </wgt>
<wgt id='1328'> +7.2654094e+04 </wgt>
<wgt id='1329'> +7.2438826e+04 </wgt>
<wgt id='1330'> +7.3754068e+04 </wgt>
<wgt id='1331'> +7.2073681e+04 </wgt>
<wgt id='1332'> +7.5304561e+04 </wgt>
<wgt id='1333'> +7.3493831e+04 </wgt>
<wgt id='1334'> +7.0799096e+04 </wgt>
<wgt id='1335'> +6.9668344e+04 </wgt>
<wgt id='1336'> +7.2814324e+04 </wgt>
<wgt id='1337'> +7.3747857e+04 </wgt>
<wgt id='1338'> +7.2195491e+04 </wgt>
<wgt id='1339'> +7.3340882e+04 </wgt>
<wgt id='1340'> +7.1483317e+04 </wgt>
<wgt id='1341'> +7.1043776e+04 </wgt>
<wgt id='1342'> +7.4736620e+04 </wgt>
<wgt id='1343'> +7.2466345e+04 </wgt>
<wgt id='1344'> +7.1189883e+04 </wgt>
<wgt id='1345'> +7.4767278e+04 </wgt>
<wgt id='1346'> +7.2483983e+04 </wgt>
<wgt id='1347'> +7.3533782e+04 </wgt>
<wgt id='1348'> +6.9654739e+04 </wgt>
<wgt id='1349'> +7.3261878e+04 </wgt>
<wgt id='1350'> +7.3117000e+04 </wgt>
<wgt id='1351'> +7.1346440e+04 </wgt>
<wgt id='1352'> +7.4409428e+04 </wgt>
<wgt id='1353'> +7.4397582e+04 </wgt>
<wgt id='1354'> +7.1983612e+04 </wgt>
<wgt id='1355'> +7.4428220e+04 </wgt>
<wgt id='1356'> +7.4157913e+04 </wgt>
<wgt id='1357'> +7.1971854e+04 </wgt>
<wgt id='1358'> +7.2519340e+04 </wgt>
<wgt id='1359'> +7.2510345e+04 </wgt>
<wgt id='1360'> +7.4612515e+04 </wgt>
<wgt id='1361'> +7.5296096e+04 </wgt>
<wgt id='1362'> +7.2309036e+04 </wgt>
<wgt id='1363'> +7.0901919e+04 </wgt>
<wgt id='1364'> +7.2086485e+04 </wgt>
<wgt id='1365'> +7.2337765e+04 </wgt>
<wgt id='1366'> +7.2995224e+04 </wgt>
<wgt id='1367'> +7.4160469e+04 </wgt>
<wgt id='1368'> +7.2794078e+04 </wgt>
<wgt id='1369'> +7.2600950e+04 </wgt>
<wgt id='1370'> +7.0559473e+04 </wgt>
<wgt id='1371'> +7.2222308e+04 </wgt>
<wgt id='1372'> +7.4801527e+04 </wgt>
<wgt id='1373'> +7.2262103e+04 </wgt>
<wgt id='1374'> +7.3619083e+04 </wgt>
<wgt id='1375'> +7.3726686e+04 </wgt>
<wgt id='1376'> +7.1157800e+04 </wgt>
<wgt id='1377'> +7.4221478e+04 </wgt>
<wgt id='1378'> +7.2164243e+04 </wgt>
<wgt id='1379'> +7.3291773e+04 </wgt>
<wgt id='1380'> +7.1073789e+04 </wgt>
<wgt id='1381'> +7.3058532e+04 </wgt>
<wgt id='1382'> +7.0289101e+04 </wgt>
<wgt id='1383'> +7.2099762e+04 </wgt>
<wgt id='1384'> +7.2932838e+04 </wgt>
<wgt id='1385'> +6.6111062e+04 </wgt>
<wgt id='1386'> +7.4271072e+04 </wgt>
<wgt id='1387'> +7.4252845e+04 </wgt>
<wgt id='1388'> +7.3967824e+04 </wgt>
<wgt id='1389'> +7.2546556e+04 </wgt>
<wgt id='1390'> +6.7741865e+04 </wgt>
<wgt id='1391'> +7.1684770e+04 </wgt>
<wgt id='1392'> +7.1269604e+04 </wgt>
<wgt id='1393'> +7.1041106e+04 </wgt>
<wgt id='1394'> +7.2337765e+04 </wgt>
<wgt id='1395'> +7.2673503e+04 </wgt>
<wgt id='1396'> +7.3715296e+04 </wgt>
<wgt id='1397'> +7.3093220e+04 </wgt>
<wgt id='1398'> +7.4647880e+04 </wgt>
<wgt id='1399'> +7.2539375e+04 </wgt>
<wgt id='1400'> +7.3575597e+04 </wgt>
<wgt id='1401'> +7.1865306e+04 </wgt>
<wgt id='1402'> +7.3086292e+04 </wgt>
<wgt id='1403'> +7.4915192e+04 </wgt>
<wgt id='1404'> +7.4014923e+04 </wgt>
<wgt id='1405'> +6.9115215e+04 </wgt>
<wgt id='1406'> +7.2243822e+04 </wgt>
<wgt id='1407'> +7.4361179e+04 </wgt>
<wgt id='1408'> +7.4929866e+04 </wgt>
<wgt id='1409'> +7.2736974e+04 </wgt>
<wgt id='1410'> +7.3433195e+04 </wgt>
<wgt id='1411'> +7.2691226e+04 </wgt>
<wgt id='1412'> +7.3669658e+04 </wgt>
<wgt id='1413'> +7.3079617e+04 </wgt>
<wgt id='1414'> +6.9809207e+04 </wgt>
<wgt id='1415'> +6.9998825e+04 </wgt>
<wgt id='1416'> +7.2713953e+04 </wgt>
<wgt id='1417'> +7.1555222e+04 </wgt>
<wgt id='1418'> +7.6020273e+04 </wgt>
<wgt id='1419'> +7.2830348e+04 </wgt>
<wgt id='1420'> +7.0460355e+04 </wgt>
<wgt id='1421'> +7.1945426e+04 </wgt>
<wgt id='1422'> +7.2698107e+04 </wgt>
<wgt id='1423'> +7.3073717e+04 </wgt>
<wgt id='1424'> +7.2643942e+04 </wgt>
<wgt id='1425'> +7.3052507e+04 </wgt>
<wgt id='1426'> +7.2590654e+04 </wgt>
<wgt id='1427'> +7.3031484e+04 </wgt>
<wgt id='1428'> +7.4782962e+04 </wgt>
<wgt id='1429'> +7.2523677e+04 </wgt>
<wgt id='1430'> +7.2900789e+04 </wgt>
<wgt id='1431'> +7.2682384e+04 </wgt>
<wgt id='1432'> +7.3180040e+04 </wgt>
<wgt id='1433'> +7.2605307e+04 </wgt>
<wgt id='1434'> +7.2603230e+04 </wgt>
<wgt id='1435'> +7.2383907e+04 </wgt>
<wgt id='1436'> +7.2086307e+04 </wgt>
<wgt id='1437'> +7.2978112e+04 </wgt>
<wgt id='1438'> +7.2787227e+04 </wgt>
<wgt id='1439'> +7.2004669e+04 </wgt>
<wgt id='1440'> +7.2613065e+04 </wgt>
<wgt id='1441'> +7.2496774e+04 </wgt>
<wgt id='1442'> +7.2476881e+04 </wgt>
<wgt id='1443'> +7.2633815e+04 </wgt>
<wgt id='1444'> +7.2301017e+04 </wgt>
<wgt id='1445'> +7.2065250e+04 </wgt>
<wgt id='1446'> +7.2881894e+04 </wgt>
<wgt id='1447'> +7.2514621e+04 </wgt>
<wgt id='1448'> +7.2821897e+04 </wgt>
<wgt id='1449'> +7.2650429e+04 </wgt>
<wgt id='1450'> +7.2536497e+04 </wgt>
<wgt id='1451'> +7.2629727e+04 </wgt>
<wgt id='1452'> +7.2607353e+04 </wgt>
<wgt id='1453'> +7.2577681e+04 </wgt>
<wgt id='1454'> +7.2693243e+04 </wgt>
<wgt id='1455'> +7.2447926e+04 </wgt>
<wgt id='1456'> +7.2684306e+04 </wgt>
<wgt id='1457'> +7.2532319e+04 </wgt>
<wgt id='1458'> +7.2743465e+04 </wgt>
<wgt id='1459'> +7.2737757e+04 </wgt>
<wgt id='1460'> +7.2486075e+04 </wgt>
<wgt id='1461'> +7.2678412e+04 </wgt>
<wgt id='1462'> +7.2529540e+04 </wgt>
<wgt id='1463'> +7.2654712e+04 </wgt>
<wgt id='1464'> +7.2623006e+04 </wgt>
<wgt id='1465'> +7.2716993e+04 </wgt>
<wgt id='1466'> +7.2639940e+04 </wgt>
<wgt id='1467'> +7.2581057e+04 </wgt>
<wgt id='1468'> +7.2608291e+04 </wgt>
<wgt id='1469'> +7.2713425e+04 </wgt>
<wgt id='1470'> +7.2693249e+04 </wgt>
<wgt id='1471'> +7.2681364e+04 </wgt>
<wgt id='1472'> +7.2586233e+04 </wgt>
<wgt id='1473'> +7.2699487e+04 </wgt>
<wgt id='1474'> +7.2729087e+04 </wgt>
<wgt id='1475'> +7.2719777e+04 </wgt>
<wgt id='1476'> +7.2712420e+04 </wgt>
<wgt id='1477'> +7.2734028e+04 </wgt>
<wgt id='1478'> +7.2773958e+04 </wgt>
<wgt id='1479'> +7.2683484e+04 </wgt>
<wgt id='1480'> +7.2619774e+04 </wgt>
<wgt id='1481'> +7.2683153e+04 </wgt>
<wgt id='1482'> +7.2523677e+04 </wgt>
<wgt id='1483'> +7.2900789e+04 </wgt>
<wgt id='1484'> +7.5023795e+04 </wgt>
<wgt id='1485'> +7.5021253e+04 </wgt>
<wgt id='1486'> +7.5936163e+04 </wgt>
<wgt id='1487'> +7.3350882e+04 </wgt>
<wgt id='1488'> +7.5194717e+04 </wgt>
<wgt id='1489'> +7.5083746e+04 </wgt>
<wgt id='1490'> +7.1355850e+04 </wgt>
<wgt id='1491'> +7.4424397e+04 </wgt>
<wgt id='1492'> +7.2948559e+04 </wgt>
<wgt id='1493'> +7.5167878e+04 </wgt>
<wgt id='1494'> +7.5849792e+04 </wgt>
<wgt id='1495'> +7.1441241e+04 </wgt>
<wgt id='1496'> +7.2165968e+04 </wgt>
<wgt id='1497'> +7.2745607e+04 </wgt>
<wgt id='1498'> +7.7225761e+04 </wgt>
<wgt id='1499'> +7.6610580e+04 </wgt>
<wgt id='1500'> +7.3338008e+04 </wgt>
<wgt id='1501'> +7.4021010e+04 </wgt>
<wgt id='1502'> +7.5584817e+04 </wgt>
<wgt id='1503'> +7.4606915e+04 </wgt>
<wgt id='1504'> +7.5650088e+04 </wgt>
<wgt id='1505'> +7.6112146e+04 </wgt>
<wgt id='1506'> +7.4900470e+04 </wgt>
<wgt id='1507'> +7.3903684e+04 </wgt>
<wgt id='1508'> +7.2819108e+04 </wgt>
<wgt id='1509'> +7.7138898e+04 </wgt>
<wgt id='1510'> +7.8115083e+04 </wgt>
<wgt id='1511'> +7.6161966e+04 </wgt>
<wgt id='1512'> +7.4744509e+04 </wgt>
<wgt id='1513'> +7.4375523e+04 </wgt>
<wgt id='1514'> +7.4349653e+04 </wgt>
<wgt id='1515'> +7.5206590e+04 </wgt>
<wgt id='1516'> +7.5202750e+04 </wgt>
<wgt id='1517'> +7.6284092e+04 </wgt>
<wgt id='1518'> +7.5131677e+04 </wgt>
<wgt id='1519'> +7.4671425e+04 </wgt>
<wgt id='1520'> +7.6480908e+04 </wgt>
<wgt id='1521'> +7.3798811e+04 </wgt>
<wgt id='1522'> +7.6959224e+04 </wgt>
<wgt id='1523'> +7.5616314e+04 </wgt>
<wgt id='1524'> +7.6059915e+04 </wgt>
<wgt id='1525'> +7.4468981e+04 </wgt>
<wgt id='1526'> +7.4208153e+04 </wgt>
<wgt id='1527'> +7.5427367e+04 </wgt>
<wgt id='1528'> +7.5303150e+04 </wgt>
<wgt id='1529'> +7.5706239e+04 </wgt>
<wgt id='1530'> +7.5111869e+04 </wgt>
<wgt id='1531'> +7.5371790e+04 </wgt>
<wgt id='1532'> +7.4888858e+04 </wgt>
<wgt id='1533'> +7.7333108e+04 </wgt>
<wgt id='1534'> +7.5697723e+04 </wgt>
<wgt id='1535'> +7.5698821e+04 </wgt>
<wgt id='1536'> +7.3667432e+04 </wgt>
<wgt id='1537'> +7.6002625e+04 </wgt>
<wgt id='1538'> +7.4725921e+04 </wgt>
<wgt id='1539'> +7.5539111e+04 </wgt>
<wgt id='1540'> +7.6374996e+04 </wgt>
<wgt id='1541'> +7.5401752e+04 </wgt>
<wgt id='1542'> +7.5449528e+04 </wgt>
<wgt id='1543'> +7.6215531e+04 </wgt>
<wgt id='1544'> +7.5186507e+04 </wgt>
<wgt id='1545'> +7.5738576e+04 </wgt>
<wgt id='1546'> +7.4109070e+04 </wgt>
<wgt id='1547'> +7.5294483e+04 </wgt>
<wgt id='1548'> +7.5695690e+04 </wgt>
<wgt id='1549'> +7.7000136e+04 </wgt>
<wgt id='1550'> +7.7780426e+04 </wgt>
<wgt id='1551'> +7.6265349e+04 </wgt>
<wgt id='1552'> +7.5237454e+04 </wgt>
<wgt id='1553'> +7.7028062e+04 </wgt>
<wgt id='1554'> +7.5116083e+04 </wgt>
<wgt id='1555'> +7.3135558e+04 </wgt>
<wgt id='1556'> +7.2085413e+04 </wgt>
<wgt id='1557'> +7.5200550e+04 </wgt>
<wgt id='1558'> +7.4920356e+04 </wgt>
<wgt id='1559'> +7.6164744e+04 </wgt>
<wgt id='1560'> +7.5881950e+04 </wgt>
<wgt id='1561'> +7.6713061e+04 </wgt>
<wgt id='1562'> +7.5284479e+04 </wgt>
<wgt id='1563'> +7.5046915e+04 </wgt>
<wgt id='1564'> +7.4528740e+04 </wgt>
<wgt id='1565'> +7.5028689e+04 </wgt>
<wgt id='1566'> +7.4030697e+04 </wgt>
<wgt id='1567'> +7.4925316e+04 </wgt>
<wgt id='1568'> +7.5313858e+04 </wgt>
<wgt id='1569'> +7.4988996e+04 </wgt>
<wgt id='1570'> +7.5941991e+04 </wgt>
<wgt id='1571'> +7.4102969e+04 </wgt>
<wgt id='1572'> +7.3586744e+04 </wgt>
<wgt id='1573'> +7.5007158e+04 </wgt>
<wgt id='1574'> +7.2963925e+04 </wgt>
<wgt id='1575'> +7.2951616e+04 </wgt>
<wgt id='1576'> +7.4922455e+04 </wgt>
<wgt id='1577'> +7.1630583e+04 </wgt>
<wgt id='1578'> +7.6771821e+04 </wgt>
<wgt id='1579'> +7.3093648e+04 </wgt>
<wgt id='1580'> +7.5683404e+04 </wgt>
<wgt id='1581'> +7.7152969e+04 </wgt>
<wgt id='1582'> +7.4780913e+04 </wgt>
<wgt id='1583'> +7.5301405e+04 </wgt>
<wgt id='1584'> +7.2690407e+04 </wgt>
<wgt id='1585'> +7.2507153e+04 </wgt>
<wgt id='1586'> +6.3217183e+04 </wgt>
<wgt id='1587'> +7.2444325e+04 </wgt>
<wgt id='1588'> +7.2523677e+04 </wgt>
<wgt id='1589'> +7.2329521e+04 </wgt>
<wgt id='1590'> +7.2497250e+04 </wgt>
<wgt id='1591'> +7.2900789e+04 </wgt>
<wgt id='1592'> +7.2647883e+04 </wgt>
<wgt id='1593'> +7.6718357e+04 </wgt>
<wgt id='1594'> +7.6112559e+04 </wgt>
<wgt id='1595'> +7.5926325e+04 </wgt>
<wgt id='1596'> +7.6245278e+04 </wgt>
<wgt id='1597'> +7.7436840e+04 </wgt>
<wgt id='1598'> +7.5046747e+04 </wgt>
<wgt id='1599'> +7.8173650e+04 </wgt>
<wgt id='1600'> +7.5193397e+04 </wgt>
<wgt id='1601'> +7.8329787e+04 </wgt>
<wgt id='1602'> +7.6018916e+04 </wgt>
<wgt id='1603'> +7.7574511e+04 </wgt>
<wgt id='1604'> +7.8458728e+04 </wgt>
<wgt id='1605'> +7.6108531e+04 </wgt>
<wgt id='1606'> +7.5407626e+04 </wgt>
<wgt id='1607'> +7.7599768e+04 </wgt>
<wgt id='1608'> +7.5681717e+04 </wgt>
<wgt id='1609'> +7.6953570e+04 </wgt>
<wgt id='1610'> +7.7263983e+04 </wgt>
<wgt id='1611'> +7.6000310e+04 </wgt>
<wgt id='1612'> +7.8056825e+04 </wgt>
<wgt id='1613'> +7.4488320e+04 </wgt>
<wgt id='1614'> +7.6855593e+04 </wgt>
<wgt id='1615'> +7.6605967e+04 </wgt>
<wgt id='1616'> +7.6530499e+04 </wgt>
<wgt id='1617'> +7.6239396e+04 </wgt>
<wgt id='1618'> +7.6537560e+04 </wgt>
<wgt id='1619'> +7.7326329e+04 </wgt>
<wgt id='1620'> +7.6521698e+04 </wgt>
<wgt id='1621'> +7.6769532e+04 </wgt>
<wgt id='1622'> +7.6288058e+04 </wgt>
<wgt id='1623'> +7.6032218e+04 </wgt>
<wgt id='1624'> +7.7392430e+04 </wgt>
<wgt id='1625'> +7.5420856e+04 </wgt>
<wgt id='1626'> +7.5728988e+04 </wgt>
<wgt id='1627'> +7.7369827e+04 </wgt>
<wgt id='1628'> +7.6624069e+04 </wgt>
<wgt id='1629'> +7.6970237e+04 </wgt>
<wgt id='1630'> +7.6437962e+04 </wgt>
<wgt id='1631'> +7.6386967e+04 </wgt>
<wgt id='1632'> +7.6847135e+04 </wgt>
<wgt id='1633'> +7.6360585e+04 </wgt>
<wgt id='1634'> +7.7373760e+04 </wgt>
<wgt id='1635'> +7.6026072e+04 </wgt>
<wgt id='1636'> +7.6381301e+04 </wgt>
<wgt id='1637'> +7.7243300e+04 </wgt>
<wgt id='1638'> +7.6974534e+04 </wgt>
<wgt id='1639'> +7.6615184e+04 </wgt>
<wgt id='1640'> +7.7531203e+04 </wgt>
<wgt id='1641'> +7.5844252e+04 </wgt>
<wgt id='1642'> +7.6289523e+04 </wgt>
<wgt id='1643'> +7.6923684e+04 </wgt>
<wgt id='1644'> +7.7689827e+04 </wgt>
<wgt id='1645'> +7.5447523e+04 </wgt>
<wgt id='1646'> +7.6797645e+04 </wgt>
<wgt id='1647'> +7.7286629e+04 </wgt>
<wgt id='1648'> +7.6429997e+04 </wgt>
<wgt id='1649'> +7.7113854e+04 </wgt>
<wgt id='1650'> +7.7620427e+04 </wgt>
<wgt id='1651'> +7.5521175e+04 </wgt>
<wgt id='1652'> +7.6147045e+04 </wgt>
<wgt id='1653'> +7.6432268e+04 </wgt>
<wgt id='1654'> +7.7011250e+04 </wgt>
<wgt id='1655'> +7.7318284e+04 </wgt>
<wgt id='1656'> +7.7792490e+04 </wgt>
<wgt id='1657'> +7.7195031e+04 </wgt>
<wgt id='1658'> +7.7215243e+04 </wgt>
<wgt id='1659'> +7.8757134e+04 </wgt>
<wgt id='1660'> +7.8440746e+04 </wgt>
<wgt id='1661'> +7.7931280e+04 </wgt>
<wgt id='1662'> +7.7233210e+04 </wgt>
<wgt id='1663'> +7.7168594e+04 </wgt>
<wgt id='1664'> +7.7163277e+04 </wgt>
<wgt id='1665'> +7.7167714e+04 </wgt>
<wgt id='1666'> +7.8574950e+04 </wgt>
<wgt id='1667'> +7.7353529e+04 </wgt>
<wgt id='1668'> +7.8391481e+04 </wgt>
<wgt id='1669'> +7.8486339e+04 </wgt>
<wgt id='1670'> +7.7265765e+04 </wgt>
<wgt id='1671'> +7.8833122e+04 </wgt>
<wgt id='1672'> +7.7151512e+04 </wgt>
<wgt id='1673'> +7.9017983e+04 </wgt>
<wgt id='1674'> +7.7796252e+04 </wgt>
<wgt id='1675'> +7.8748887e+04 </wgt>
<wgt id='1676'> +7.6905152e+04 </wgt>
<wgt id='1677'> +7.7953399e+04 </wgt>
<wgt id='1678'> +7.8508155e+04 </wgt>
<wgt id='1679'> +7.7010613e+04 </wgt>
<wgt id='1680'> +7.9192457e+04 </wgt>
<wgt id='1681'> +7.7970524e+04 </wgt>
<wgt id='1682'> +7.7118587e+04 </wgt>
<wgt id='1683'> +7.7654972e+04 </wgt>
<wgt id='1684'> +7.7837425e+04 </wgt>
<wgt id='1685'> +7.8491047e+04 </wgt>
<wgt id='1686'> +7.6644969e+04 </wgt>
<wgt id='1687'> +7.8181542e+04 </wgt>
<wgt id='1688'> +7.6966404e+04 </wgt>
<wgt id='1689'> +7.7288990e+04 </wgt>
<wgt id='1690'> +7.9504410e+04 </wgt>
<wgt id='1691'> +7.7992736e+04 </wgt>
<wgt id='1692'> +7.7612201e+04 </wgt>
<wgt id='1693'> +7.8634628e+04 </wgt>
<wgt id='1694'> +7.7630325e+04 </wgt>
<wgt id='1695'> +7.7344393e+04 </wgt>
<wgt id='1696'> +7.7835859e+04 </wgt>
<wgt id='1697'> +7.8455554e+04 </wgt>
<wgt id='1698'> +7.7080012e+04 </wgt>
<wgt id='1699'> +7.6452803e+04 </wgt>
<wgt id='1700'> +7.9327189e+04 </wgt>
<wgt id='1701'> +7.6121529e+04 </wgt>
<wgt id='1702'> +7.9718933e+04 </wgt>
<wgt id='1703'> +7.7827148e+04 </wgt>
<wgt id='1704'> +7.8503433e+04 </wgt>
<wgt id='1705'> +7.7596769e+04 </wgt>
<wgt id='1706'> +7.8304528e+04 </wgt>
<wgt id='1707'> +7.6537885e+04 </wgt>
<wgt id='1708'> +7.8813083e+04 </wgt>
<wgt id='1709'> +7.7558197e+04 </wgt>
<wgt id='1710'> +7.8155700e+04 </wgt>
<wgt id='1711'> +7.7624604e+04 </wgt>
<wgt id='1712'> +7.7464617e+04 </wgt>
<wgt id='1713'> +7.8289720e+04 </wgt>
<wgt id='1714'> +7.6995804e+04 </wgt>
<wgt id='1715'> +7.5303383e+04 </wgt>
<wgt id='1716'> +7.7748478e+04 </wgt>
<wgt id='1717'> +7.2026362e+04 </wgt>
<wgt id='1718'> +7.2000000e+04 </wgt>
<wgt id='1719'> +7.2058147e+04 </wgt>
<wgt id='1720'> +7.2039184e+04 </wgt>
<wgt id='1721'> +7.2014644e+04 </wgt>
<wgt id='1722'> +7.2033192e+04 </wgt>
<wgt id='1723'> +7.2014851e+04 </wgt>
<wgt id='1724'> +7.2264516e+04 </wgt>
<wgt id='1725'> +7.1832910e+04 </wgt>
<wgt id='1726'> +7.1908224e+04 </wgt>
<wgt id='1727'> +7.2147840e+04 </wgt>
<wgt id='1728'> +7.0967366e+04 </wgt>
<wgt id='1729'> +7.3059303e+04 </wgt>
<wgt id='1730'> +7.2205664e+04 </wgt>
<wgt id='1731'> +7.1898418e+04 </wgt>
<wgt id='1732'> +7.2511824e+04 </wgt>
<wgt id='1733'> +7.2511824e+04 </wgt>
<wgt id='1734'> +7.1629182e+04 </wgt>
<wgt id='1735'> +7.2292579e+04 </wgt>
<wgt id='1736'> +7.1697676e+04 </wgt>
<wgt id='1737'> +7.2482336e+04 </wgt>
<wgt id='1738'> +7.2215183e+04 </wgt>
<wgt id='1739'> +7.1636648e+04 </wgt>
<wgt id='1740'> +7.1986780e+04 </wgt>
<wgt id='1741'> +7.2113652e+04 </wgt>
<wgt id='1742'> +7.1675197e+04 </wgt>
<wgt id='1743'> +7.2423043e+04 </wgt>
<wgt id='1744'> +7.2198477e+04 </wgt>
<wgt id='1745'> +7.1557124e+04 </wgt>
<wgt id='1746'> +7.1700817e+04 </wgt>
<wgt id='1747'> +7.2185507e+04 </wgt>
<wgt id='1748'> +7.2288531e+04 </wgt>
<wgt id='1749'> +7.1165209e+04 </wgt>
<wgt id='1750'> +7.2113781e+04 </wgt>
<wgt id='1751'> +7.1934684e+04 </wgt>
<wgt id='1752'> +7.1765450e+04 </wgt>
<wgt id='1753'> +7.2386428e+04 </wgt>
<wgt id='1754'> +7.2482071e+04 </wgt>
<wgt id='1755'> +7.1775855e+04 </wgt>
<wgt id='1756'> +7.1521587e+04 </wgt>
<wgt id='1757'> +7.3270690e+04 </wgt>
<wgt id='1758'> +7.2051606e+04 </wgt>
<wgt id='1759'> +7.1790085e+04 </wgt>
<wgt id='1760'> +7.2264272e+04 </wgt>
<wgt id='1761'> +7.1827442e+04 </wgt>
<wgt id='1762'> +7.1879507e+04 </wgt>
<wgt id='1763'> +7.2296747e+04 </wgt>
<wgt id='1764'> +7.1995268e+04 </wgt>
<wgt id='1765'> +7.2148085e+04 </wgt>
<wgt id='1766'> +7.1980491e+04 </wgt>
<wgt id='1767'> +7.2074993e+04 </wgt>
<wgt id='1768'> +7.2027389e+04 </wgt>
<wgt id='1769'> +7.2045990e+04 </wgt>
<wgt id='1770'> +7.1785899e+04 </wgt>
<wgt id='1771'> +7.2332490e+04 </wgt>
<wgt id='1772'> +7.2083545e+04 </wgt>
<wgt id='1773'> +7.2170022e+04 </wgt>
<wgt id='1774'> +7.1099401e+04 </wgt>
<wgt id='1775'> +7.2614214e+04 </wgt>
<wgt id='1776'> +7.1473106e+04 </wgt>
<wgt id='1777'> +7.2291810e+04 </wgt>
<wgt id='1778'> +7.1822974e+04 </wgt>
<wgt id='1779'> +7.2021080e+04 </wgt>
<wgt id='1780'> +7.2634076e+04 </wgt>
<wgt id='1781'> +7.2077541e+04 </wgt>
<wgt id='1782'> +7.2026362e+04 </wgt>
<wgt id='1783'> +7.2177982e+04 </wgt>
<wgt id='1784'> +7.3526736e+04 </wgt>
<wgt id='1785'> +7.3281478e+04 </wgt>
<wgt id='1786'> +7.1532863e+04 </wgt>
<wgt id='1787'> +7.3500293e+04 </wgt>
<wgt id='1788'> +7.3779572e+04 </wgt>
<wgt id='1789'> +7.3565557e+04 </wgt>
<wgt id='1790'> +7.3095586e+04 </wgt>
<wgt id='1791'> +7.3387557e+04 </wgt>
<wgt id='1792'> +7.2980740e+04 </wgt>
<wgt id='1793'> +7.3606484e+04 </wgt>
<wgt id='1794'> +7.4083124e+04 </wgt>
<wgt id='1795'> +7.3049696e+04 </wgt>
<wgt id='1796'> +7.3533752e+04 </wgt>
<wgt id='1797'> +7.3551912e+04 </wgt>
<wgt id='1798'> +7.3423391e+04 </wgt>
<wgt id='1799'> +7.4101370e+04 </wgt>
<wgt id='1800'> +7.4298660e+04 </wgt>
<wgt id='1801'> +7.4149952e+04 </wgt>
<wgt id='1802'> +7.3751725e+04 </wgt>
<wgt id='1803'> +7.3871706e+04 </wgt>
<wgt id='1804'> +7.2835127e+04 </wgt>
<wgt id='1805'> +7.3280009e+04 </wgt>
<wgt id='1806'> +7.3395784e+04 </wgt>
<wgt id='1807'> +7.3596438e+04 </wgt>
<wgt id='1808'> +7.3546351e+04 </wgt>
<wgt id='1809'> +7.2625158e+04 </wgt>
<wgt id='1810'> +7.3296612e+04 </wgt>
<wgt id='1811'> +7.3405637e+04 </wgt>
<wgt id='1812'> +7.3359579e+04 </wgt>
<wgt id='1813'> +7.2669727e+04 </wgt>
<wgt id='1814'> +7.3328329e+04 </wgt>
<wgt id='1815'> +7.3441947e+04 </wgt>
<wgt id='1816'> +7.3343976e+04 </wgt>
<wgt id='1817'> +7.3259495e+04 </wgt>
<wgt id='1818'> +7.3530551e+04 </wgt>
<wgt id='1819'> +7.3705424e+04 </wgt>
<wgt id='1820'> +7.3309262e+04 </wgt>
<wgt id='1821'> +7.3503148e+04 </wgt>
<wgt id='1822'> +7.3621403e+04 </wgt>
<wgt id='1823'> +7.3325033e+04 </wgt>
<wgt id='1824'> +7.4463625e+04 </wgt>
<wgt id='1825'> +7.3226193e+04 </wgt>
<wgt id='1826'> +7.4321453e+04 </wgt>
<wgt id='1827'> +7.6142677e+04 </wgt>
<wgt id='1828'> +7.6274340e+04 </wgt>
<wgt id='1829'> +7.5986028e+04 </wgt>
<wgt id='1830'> +7.6184286e+04 </wgt>
<wgt id='1831'> +7.6074854e+04 </wgt>
<wgt id='1832'> +7.6201248e+04 </wgt>
<wgt id='1833'> +7.6058463e+04 </wgt>
<wgt id='1834'> +7.5775045e+04 </wgt>
<wgt id='1835'> +7.6468654e+04 </wgt>
<wgt id='1836'> +7.6332737e+04 </wgt>
<wgt id='1837'> +7.5913433e+04 </wgt>
<wgt id='1838'> +7.6083675e+04 </wgt>
<wgt id='1839'> +7.6140785e+04 </wgt>
<wgt id='1840'> +7.6047601e+04 </wgt>
<wgt id='1841'> +7.6219295e+04 </wgt>
<wgt id='1842'> +7.6232576e+04 </wgt>
<wgt id='1843'> +7.6301397e+04 </wgt>
<wgt id='1844'> +7.5651482e+04 </wgt>
<wgt id='1845'> +7.6584001e+04 </wgt>
<wgt id='1846'> +7.5047901e+04 </wgt>
<wgt id='1847'> +7.7129133e+04 </wgt>
<wgt id='1848'> +7.6189063e+04 </wgt>
<wgt id='1849'> +7.5964536e+04 </wgt>
<wgt id='1850'> +7.6806066e+04 </wgt>
<wgt id='1851'> +7.5477873e+04 </wgt>
<wgt id='1852'> +7.6951675e+04 </wgt>
<wgt id='1853'> +7.5294646e+04 </wgt>
<wgt id='1854'> +7.6714914e+04 </wgt>
<wgt id='1855'> +7.5646100e+04 </wgt>
<wgt id='1856'> +7.2870926e+04 </wgt>
<wgt id='1857'> +7.2857595e+04 </wgt>
<wgt id='1858'> +7.2772514e+04 </wgt>
<wgt id='1859'> +7.2847416e+04 </wgt>
<wgt id='1860'> +7.2872156e+04 </wgt>
<wgt id='1861'> +7.2896487e+04 </wgt>
<wgt id='1862'> +7.2506941e+04 </wgt>
<wgt id='1863'> +7.2935082e+04 </wgt>
<wgt id='1864'> +7.2761513e+04 </wgt>
<wgt id='1865'> +7.2585672e+04 </wgt>
<wgt id='1866'> +7.2836295e+04 </wgt>
<wgt id='1867'> +7.2833032e+04 </wgt>
<wgt id='1868'> +7.2921496e+04 </wgt>
<wgt id='1869'> +7.2989877e+04 </wgt>
<wgt id='1870'> +7.2633653e+04 </wgt>
<wgt id='1871'> +7.2695966e+04 </wgt>
<wgt id='1872'> +7.2633462e+04 </wgt>
<wgt id='1873'> +7.2798016e+04 </wgt>
<wgt id='1874'> +7.2689458e+04 </wgt>
<wgt id='1875'> +7.2957587e+04 </wgt>
<wgt id='1876'> +7.2742870e+04 </wgt>
<wgt id='1877'> +7.2434339e+04 </wgt>
<wgt id='1878'> +7.2799517e+04 </wgt>
<wgt id='1879'> +7.3456540e+04 </wgt>
<wgt id='1880'> +7.3241193e+04 </wgt>
<wgt id='1881'> +7.2769129e+04 </wgt>
<wgt id='1882'> +7.2792074e+04 </wgt>
<wgt id='1883'> +7.3191953e+04 </wgt>
<wgt id='1884'> +7.2085227e+04 </wgt>
<wgt id='1885'> +7.2203160e+04 </wgt>
<wgt id='1886'> +7.4578103e+04 </wgt>
<wgt id='1887'> +7.7823290e+04 </wgt>
<wgt id='1888'> +6.4791404e+04 </wgt>
<wgt id='1889'> +7.6320415e+04 </wgt>
</rwgt>
</event>
<event npLO=" -1 " npNLO=" 0 ">
 5      0 +7.4519530e+04 3.00000000e+01 7.55820760e-03 1.15274180e-01
        2 -1    0    0  501    0 +0.0000000000e+00 +0.0000000000e+00 +1.5086556866e+02 1.5086556866e+02 0.0000000000e+00 0.0000e+00 -1.0000e+00
       -1 -1    0    0    0  501 +0.0000000000e+00 +0.0000000000e+00 -1.0680413784e+01 1.0680413784e+01 0.0000000000e+00 0.0000e+00 1.0000e+00
       24  2    1    2    0    0 +0.0000000000e+00 +0.0000000000e+00 +1.4018515488e+02 1.6154598245e+02 8.0282169854e+01 0.0000e+00 0.0000e+00
      -13  1    3    3    0    0 -1.8965570429e+01 -1.6351730025e+01 +6.9639408498e+00 2.5991698841e+01 0.0000000000e+00 0.0000e+00 1.0000e+00
       14  1    3    3    0    0 +1.8965570429e+01 +1.6351730025e+01 +1.3322121403e+02 1.3555428361e+02 0.0000000000e+00 0.0000e+00 -1.0000e+00
#aMCatNLO 1  0  0  2  1 0.83286745E+02 0.00000000E+00 -9  5  0 0.00000000E+00 0.00000000E+00 0.00000000E+00 0.00000000E+00 0.00000000E+00
<rwgt>
<wgt id='1001'> +7.4519530e+04 </wgt>
<wgt id='1002'> +7.6159749e+04 </wgt>
<wgt id='1003'> +7.2475695e+04 </wgt>
<wgt id='1004'> +4.9740562e+04 </wgt>
<wgt id='1005'> +5.4808277e+04 </wgt>
<wgt id='1006'> +4.3425808e+04 </wgt>
<wgt id='1007'> +9.4407269e+04 </wgt>
<wgt id='1008'> +9.3009845e+04 </wgt>
<wgt id='1009'> +9.6148564e+04 </wgt>
<wgt id='1010'> +7.4519530e+04 </wgt>
<wgt id='1011'> +7.4463713e+04 </wgt>
<wgt id='1012'> +7.4547391e+04 </wgt>
<wgt id='1013'> +7.4247580e+04 </wgt>
<wgt id='1014'> +7.4796641e+04 </wgt>
<wgt id='1015'> +7.4268475e+04 </wgt>
<wgt id='1016'> +7.4554123e+04 </wgt>
<wgt id='1017'> +7.4619646e+04 </wgt>
<wgt id='1018'> +7.4297334e+04 </wgt>
<wgt id='1019'> +7.4679838e+04 </wgt>
<wgt id='1020'> +7.4264233e+04 </wgt>
<wgt id='1021'> +7.4513527e+04 </wgt>
<wgt id='1022'> +7.4564247e+04 </wgt>
<wgt id='1023'> +7.4700188e+04 </wgt>
<wgt id='1024'> +7.4471438e+04 </wgt>
<wgt id='1025'> +7.5141551e+04 </wgt>
<wgt id='1026'> +7.4254468e+04 </wgt>
<wgt id='1027'> +7.4519892e+04 </wgt>
<wgt id='1028'> +7.4106117e+04 </wgt>
<wgt id='1029'> +7.4600643e+04 </wgt>
<wgt id='1030'> +7.5083352e+04 </wgt>
<wgt id='1031'> +7.4540087e+04 </wgt>
<wgt id='1032'> +7.4727085e+04 </wgt>
<wgt id='1033'> +7.4210533e+04 </wgt>
<wgt id='1034'> +7.4446890e+04 </wgt>
<wgt id='1035'> +7.4187497e+04 </wgt>
<wgt id='1036'> +7.4245888e+04 </wgt>
<wgt id='1037'> +7.5341057e+04 </wgt>
<wgt id='1038'> +7.4816134e+04 </wgt>
<wgt id='1039'> +7.4397001e+04 </wgt>
<wgt id='1040'> +7.4466944e+04 </wgt>
<wgt id='1041'> +7.4706259e+04 </wgt>
<wgt id='1042'> +7.4678886e+04 </wgt>
<wgt id='1043'> +7.4412256e+04 </wgt>
<wgt id='1044'> +7.4487329e+04 </wgt>
<wgt id='1045'> +7.4610071e+04 </wgt>
<wgt id='1046'> +7.4516699e+04 </wgt>
<wgt id='1047'> +7.4389210e+04 </wgt>
<wgt id='1048'> +7.4719694e+04 </wgt>
<wgt id='1049'> +7.4611504e+04 </wgt>
<wgt id='1050'> +7.4465602e+04 </wgt>
<wgt id='1051'> +7.4705071e+04 </wgt>
<wgt id='1052'> +7.4629311e+04 </wgt>
<wgt id='1053'> +7.4161953e+04 </wgt>
<wgt id='1054'> +7.4514179e+04 </wgt>
<wgt id='1055'> +7.4497190e+04 </wgt>
<wgt id='1056'> +7.4768640e+04 </wgt>
<wgt id='1057'> +7.4386580e+04 </wgt>
<wgt id='1058'> +7.4597325e+04 </wgt>
<wgt id='1059'> +7.4448954e+04 </wgt>
<wgt id='1060'> +7.4534019e+04 </wgt>
<wgt id='1061'> +7.4488120e+04 </wgt>
<wgt id='1062'> +7.4617126e+04 </wgt>
<wgt id='1063'> +7.4395420e+04 </wgt>
<wgt id='1064'> +7.4501563e+04 </wgt>
<wgt id='1065'> +7.4526195e+04 </wgt>
<wgt id='1066'> +7.4723451e+04 </wgt>
<wgt id='1067'> +7.4536612e+04 </wgt>
<wgt id='1068'> +7.4548007e+04 </wgt>
<wgt id='1069'> +7.4500541e+04 </wgt>
<wgt id='1070'> +7.4512660e+04 </wgt>
<wgt id='1071'> +7.4490212e+04 </wgt>
<wgt id='1072'> +7.4484951e+04 </wgt>
<wgt id='1073'> +7.4624326e+04 </wgt>
<wgt id='1074'> +7.4536014e+04 </wgt>
<wgt id='1075'> +7.4461070e+04 </wgt>
<wgt id='1076'> +7.4583787e+04 </wgt>
<wgt id='1077'> +7.4545941e+04 </wgt>
<wgt id='1078'> +7.4612052e+04 </wgt>
<wgt id='1079'> +7.4590009e+04 </wgt>
<wgt id='1080'> +7.4448855e+04 </wgt>
<wgt id='1081'> +7.4554697e+04 </wgt>
<wgt id='1082'> +7.4590782e+04 </wgt>
<wgt id='1083'> +7.4499405e+04 </wgt>
<wgt id='1084'> +7.4628780e+04 </wgt>
<wgt id='1085'> +7.4481945e+04 </wgt>
<wgt id='1086'> +7.4486808e+04 </wgt>
<wgt id='1087'> +7.4562837e+04 </wgt>
<wgt id='1088'> +7.4509705e+04 </wgt>
<wgt id='1089'> +7.4475050e+04 </wgt>
<wgt id='1090'> +7.4538544e+04 </wgt>
<wgt id='1091'> +7.4535808e+04 </wgt>
<wgt id='1092'> +7.4516986e+04 </wgt>
<wgt id='1093'> +7.4557589e+04 </wgt>
<wgt id='1094'> +7.4568913e+04 </wgt>
<wgt id='1095'> +7.4548257e+04 </wgt>
<wgt id='1096'> +7.4493941e+04 </wgt>
<wgt id='1097'> +7.4559582e+04 </wgt>
<wgt id='1098'> +7.4494188e+04 </wgt>
<wgt id='1099'> +7.4546068e+04 </wgt>
<wgt id='1100'> +7.4548915e+04 </wgt>
<wgt id='1101'> +7.4537590e+04 </wgt>
<wgt id='1102'> +7.4547916e+04 </wgt>
<wgt id='1103'> +7.4553949e+04 </wgt>
<wgt id='1104'> +7.4544399e+04 </wgt>
<wgt id='1105'> +7.4534969e+04 </wgt>
<wgt id='1106'> +7.4539171e+04 </wgt>
<wgt id='1107'> +7.4528738e+04 </wgt>
<wgt id='1108'> +7.4531171e+04 </wgt>
<wgt id='1109'> +7.4507259e+04 </wgt>
<wgt id='1110'> +7.4519531e+04 </wgt>
<wgt id='1111'> +7.4176355e+04 </wgt>
<wgt id='1112'> +7.4917563e+04 </wgt>
<wgt id='1113'> +7.4519531e+04 </wgt>
<wgt id='1114'> +7.8708909e+04 </wgt>
<wgt id='1115'> +7.4375086e+04 </wgt>
<wgt id='1116'> +6.8507274e+04 </wgt>
<wgt id='1117'> +7.3193724e+04 </wgt>
<wgt id='1118'> +7.3664721e+04 </wgt>
<wgt id='1119'> +7.7046260e+04 </wgt>
<wgt id='1120'> +7.5101581e+04 </wgt>
<wgt id='1121'> +7.1466373e+04 </wgt>
<wgt id='1122'> +7.2310541e+04 </wgt>
<wgt id='1123'> +7.3905432e+04 </wgt>
<wgt id='1124'> +7.4325397e+04 </wgt>
<wgt id='1125'> +7.3098460e+04 </wgt>
<wgt id='1126'> +7.4791918e+04 </wgt>
<wgt id='1127'> +7.2878898e+04 </wgt>
<wgt id='1128'> +7.5077667e+04 </wgt>
<wgt id='1129'> +7.5572798e+04 </wgt>
<wgt id='1130'> +7.7740493e+04 </wgt>
<wgt id='1131'> +7.4543305e+04 </wgt>
<wgt id='1132'> +7.4756009e+04 </wgt>
<wgt id='1133'> +7.1878829e+04 </wgt>
<wgt id='1134'> +7.2626727e+04 </wgt>
<wgt id='1135'> +7.5161543e+04 </wgt>
<wgt id='1136'> +7.6037892e+04 </wgt>
<wgt id='1137'> +7.4915943e+04 </wgt>
<wgt id='1138'> +7.3416576e+04 </wgt>
<wgt id='1139'> +7.4467691e+04 </wgt>
<wgt id='1140'> +7.8490242e+04 </wgt>
<wgt id='1141'> +7.4358375e+04 </wgt>
<wgt id='1142'> +7.7162828e+04 </wgt>
<wgt id='1143'> +7.5965500e+04 </wgt>
<wgt id='1144'> +7.4109051e+04 </wgt>
<wgt id='1145'> +7.3490794e+04 </wgt>
<wgt id='1146'> +7.5051355e+04 </wgt>
<wgt id='1147'> +7.3775891e+04 </wgt>
<wgt id='1148'> +7.5688253e+04 </wgt>
<wgt id='1149'> +7.3725810e+04 </wgt>
<wgt id='1150'> +7.4609592e+04 </wgt>
<wgt id='1151'> +7.3960592e+04 </wgt>
<wgt id='1152'> +7.2349435e+04 </wgt>
<wgt id='1153'> +7.3192847e+04 </wgt>
<wgt id='1154'> +7.4242928e+04 </wgt>
<wgt id='1155'> +7.6273484e+04 </wgt>
<wgt id='1156'> +7.6367200e+04 </wgt>
<wgt id='1157'> +7.5706968e+04 </wgt>
<wgt id='1158'> +7.4416903e+04 </wgt>
<wgt id='1159'> +7.6507082e+04 </wgt>
<wgt id='1160'> +7.5724100e+04 </wgt>
<wgt id='1161'> +7.2027331e+04 </wgt>
<wgt id='1162'> +7.6774930e+04 </wgt>
<wgt id='1163'> +7.6712485e+04 </wgt>
<wgt id='1164'> +7.3209590e+04 </wgt>
<wgt id='1165'> +7.3384191e+04 </wgt>
<wgt id='1166'> +7.5973915e+04 </wgt>
<wgt id='1167'> +7.7255272e+04 </wgt>
<wgt id='1168'> +7.2930716e+04 </wgt>
<wgt id='1169'> +7.4552638e+04 </wgt>
<wgt id='1170'> +7.7169247e+04 </wgt>
<wgt id='1171'> +7.3424267e+04 </wgt>
<wgt id='1172'> +7.4237359e+04 </wgt>
<wgt id='1173'> +7.3717960e+04 </wgt>
<wgt id='1174'> +7.5401250e+04 </wgt>
<wgt id='1175'> +7.5081983e+04 </wgt>
<wgt id='1176'> +7.5547570e+04 </wgt>
<wgt id='1177'> +7.1355314e+04 </wgt>
<wgt id='1178'> +7.5813024e+04 </wgt>
<wgt id='1179'> +7.4351841e+04 </wgt>
<wgt id='1180'> +7.4705052e+04 </wgt>
<wgt id='1181'> +7.5825381e+04 </wgt>
<wgt id='1182'> +7.5791234e+04 </wgt>
<wgt id='1183'> +7.5434834e+04 </wgt>
<wgt id='1184'> +7.2955212e+04 </wgt>
<wgt id='1185'> +7.7521603e+04 </wgt>
<wgt id='1186'> +6.9897412e+04 </wgt>
<wgt id='1187'> +7.1840991e+04 </wgt>
<wgt id='1188'> +7.3693910e+04 </wgt>
<wgt id='1189'> +7.5045570e+04 </wgt>
<wgt id='1190'> +7.2907012e+04 </wgt>
<wgt id='1191'> +7.4958073e+04 </wgt>
<wgt id='1192'> +7.3902334e+04 </wgt>
<wgt id='1193'> +7.5684838e+04 </wgt>
<wgt id='1194'> +7.4766407e+04 </wgt>
<wgt id='1195'> +7.5572798e+04 </wgt>
<wgt id='1196'> +7.4312881e+04 </wgt>
<wgt id='1197'> +7.3685224e+04 </wgt>
<wgt id='1198'> +7.3520910e+04 </wgt>
<wgt id='1199'> +7.7808786e+04 </wgt>
<wgt id='1200'> +7.4829421e+04 </wgt>
<wgt id='1201'> +7.6442701e+04 </wgt>
<wgt id='1202'> +7.1536764e+04 </wgt>
<wgt id='1203'> +7.4194801e+04 </wgt>
<wgt id='1204'> +7.4787086e+04 </wgt>
<wgt id='1205'> +7.3132788e+04 </wgt>
<wgt id='1206'> +7.4349105e+04 </wgt>
<wgt id='1207'> +7.6566048e+04 </wgt>
<wgt id='1208'> +7.3974628e+04 </wgt>
<wgt id='1209'> +7.3801494e+04 </wgt>
<wgt id='1210'> +7.4595544e+04 </wgt>
<wgt id='1211'> +7.3495294e+04 </wgt>
<wgt id='1212'> +7.2838367e+04 </wgt>
<wgt id='1213'> +7.4046372e+04 </wgt>
<wgt id='1214'> +7.4550332e+04 </wgt>
<wgt id='1215'> +7.3744772e+04 </wgt>
<wgt id='1216'> +7.3729073e+04 </wgt>
<wgt id='1217'> +7.3575495e+04 </wgt>
<wgt id='1218'> +7.3873005e+04 </wgt>
<wgt id='1219'> +7.4711775e+04 </wgt>
<wgt id='1220'> +7.4769305e+04 </wgt>
<wgt id='1221'> +7.5414635e+04 </wgt>
<wgt id='1222'> +7.5354724e+04 </wgt>
<wgt id='1223'> +7.3194170e+04 </wgt>
<wgt id='1224'> +7.3226984e+04 </wgt>
<wgt id='1225'> +7.3319181e+04 </wgt>
<wgt id='1226'> +7.3060112e+04 </wgt>
<wgt id='1227'> +7.3621959e+04 </wgt>
<wgt id='1228'> +7.3222742e+04 </wgt>
<wgt id='1229'> +7.2924604e+04 </wgt>
<wgt id='1230'> +7.3354461e+04 </wgt>
<wgt id='1231'> +7.3381296e+04 </wgt>
<wgt id='1232'> +7.3350060e+04 </wgt>
<wgt id='1233'> +7.2767823e+04 </wgt>
<wgt id='1234'> +7.3063108e+04 </wgt>
<wgt id='1235'> +7.3281193e+04 </wgt>
<wgt id='1236'> +7.3557151e+04 </wgt>
<wgt id='1237'> +7.3182953e+04 </wgt>
<wgt id='1238'> +7.2844579e+04 </wgt>
<wgt id='1239'> +7.3766154e+04 </wgt>
<wgt id='1240'> +7.2881020e+04 </wgt>
<wgt id='1241'> +7.3462246e+04 </wgt>
<wgt id='1242'> +7.3332603e+04 </wgt>
<wgt id='1243'> +7.2924454e+04 </wgt>
<wgt id='1244'> +7.3592573e+04 </wgt>
<wgt id='1245'> +7.3119868e+04 </wgt>
<wgt id='1246'> +7.2758406e+04 </wgt>
<wgt id='1247'> +7.3749208e+04 </wgt>
<wgt id='1248'> +7.2988692e+04 </wgt>
<wgt id='1249'> +7.3314001e+04 </wgt>
<wgt id='1250'> +7.3136906e+04 </wgt>
<wgt id='1251'> +7.3103333e+04 </wgt>
<wgt id='1252'> +7.3810865e+04 </wgt>
<wgt id='1253'> +7.3286700e+04 </wgt>
<wgt id='1254'> +7.2958144e+04 </wgt>
<wgt id='1255'> +7.3283768e+04 </wgt>
<wgt id='1256'> +7.3065693e+04 </wgt>
<wgt id='1257'> +7.3321455e+04 </wgt>
<wgt id='1258'> +7.3323200e+04 </wgt>
<wgt id='1259'> +7.3208043e+04 </wgt>
<wgt id='1260'> +7.3129489e+04 </wgt>
<wgt id='1261'> +7.3233688e+04 </wgt>
<wgt id='1262'> +7.3123810e+04 </wgt>
<wgt id='1263'> +7.3159698e+04 </wgt>
<wgt id='1264'> +7.3048019e+04 </wgt>
<wgt id='1265'> +7.3086863e+04 </wgt>
<wgt id='1266'> +7.3194047e+04 </wgt>
<wgt id='1267'> +7.3181373e+04 </wgt>
<wgt id='1268'> +7.3210275e+04 </wgt>
<wgt id='1269'> +7.3204436e+04 </wgt>
<wgt id='1270'> +7.3143118e+04 </wgt>
<wgt id='1271'> +7.3237841e+04 </wgt>
<wgt id='1272'> +7.3354238e+04 </wgt>
<wgt id='1273'> +7.3175866e+04 </wgt>
<wgt id='1274'> +7.3111299e+04 </wgt>
<wgt id='1275'> +7.3129909e+04 </wgt>
<wgt id='1276'> +7.3106003e+04 </wgt>
<wgt id='1277'> +7.3237229e+04 </wgt>
<wgt id='1278'> +7.3197525e+04 </wgt>
<wgt id='1279'> +7.3442276e+04 </wgt>
<wgt id='1280'> +7.3123420e+04 </wgt>
<wgt id='1281'> +7.3105018e+04 </wgt>
<wgt id='1282'> +7.3169957e+04 </wgt>
<wgt id='1283'> +7.3274424e+04 </wgt>
<wgt id='1284'> +7.3191652e+04 </wgt>
<wgt id='1285'> +7.3225723e+04 </wgt>
<wgt id='1286'> +7.3169857e+04 </wgt>
<wgt id='1287'> +7.3244219e+04 </wgt>
<wgt id='1288'> +7.3229465e+04 </wgt>
<wgt id='1289'> +7.3131109e+04 </wgt>
<wgt id='1290'> +7.3183749e+04 </wgt>
<wgt id='1291'> +7.3182030e+04 </wgt>
<wgt id='1292'> +7.3144949e+04 </wgt>
<wgt id='1293'> +7.3074760e+04 </wgt>
<wgt id='1294'> +7.3212851e+04 </wgt>
<wgt id='1295'> +7.3226514e+04 </wgt>
<wgt id='1296'> +7.3140761e+04 </wgt>
<wgt id='1297'> +7.3177124e+04 </wgt>
<wgt id='1298'> +7.3055217e+04 </wgt>
<wgt id='1299'> +7.3185318e+04 </wgt>
<wgt id='1300'> +7.3165255e+04 </wgt>
<wgt id='1301'> +7.3163920e+04 </wgt>
<wgt id='1302'> +7.3134681e+04 </wgt>
<wgt id='1303'> +7.3247950e+04 </wgt>
<wgt id='1304'> +7.3163061e+04 </wgt>
<wgt id='1305'> +7.3236756e+04 </wgt>
<wgt id='1306'> +7.3258973e+04 </wgt>
<wgt id='1307'> +7.3202909e+04 </wgt>
<wgt id='1308'> +7.3226858e+04 </wgt>
<wgt id='1309'> +7.3150227e+04 </wgt>
<wgt id='1310'> +7.3203555e+04 </wgt>
<wgt id='1311'> +7.3167995e+04 </wgt>
<wgt id='1312'> +7.3185655e+04 </wgt>
<wgt id='1313'> +7.3233477e+04 </wgt>
<wgt id='1314'> +7.3195451e+04 </wgt>
<wgt id='1315'> +7.3203259e+04 </wgt>
<wgt id='1316'> +7.3251527e+04 </wgt>
<wgt id='1317'> +7.3132437e+04 </wgt>
<wgt id='1318'> +7.3192903e+04 </wgt>
<wgt id='1319'> +7.3218725e+04 </wgt>
<wgt id='1320'> +7.3206779e+04 </wgt>
<wgt id='1321'> +7.3179235e+04 </wgt>
<wgt id='1322'> +7.3228200e+04 </wgt>
<wgt id='1323'> +7.3223384e+04 </wgt>
<wgt id='1324'> +7.2911723e+04 </wgt>
<wgt id='1325'> +7.3621903e+04 </wgt>
<wgt id='1326'> +7.1814121e+04 </wgt>
<wgt id='1327'> +6.7907510e+04 </wgt>
<wgt id='1328'> +7.4825986e+04 </wgt>
<wgt id='1329'> +7.4191838e+04 </wgt>
<wgt id='1330'> +7.5317398e+04 </wgt>
<wgt id='1331'> +7.5072124e+04 </wgt>
<wgt id='1332'> +7.4597484e+04 </wgt>
<wgt id='1333'> +7.4768208e+04 </wgt>
<wgt id='1334'> +7.2723299e+04 </wgt>
<wgt id='1335'> +7.4698195e+04 </wgt>
<wgt id='1336'> +7.5488320e+04 </wgt>
<wgt id='1337'> +7.4490557e+04 </wgt>
<wgt id='1338'> +7.5595400e+04 </wgt>
<wgt id='1339'> +7.5411256e+04 </wgt>
<wgt id='1340'> +7.3118807e+04 </wgt>
<wgt id='1341'> +7.4536445e+04 </wgt>
<wgt id='1342'> +7.5677711e+04 </wgt>
<wgt id='1343'> +7.5971868e+04 </wgt>
<wgt id='1344'> +7.5132982e+04 </wgt>
<wgt id='1345'> +7.5840145e+04 </wgt>
<wgt id='1346'> +7.6058263e+04 </wgt>
<wgt id='1347'> +7.5750022e+04 </wgt>
<wgt id='1348'> +7.3775253e+04 </wgt>
<wgt id='1349'> +7.5514218e+04 </wgt>
<wgt id='1350'> +7.4368511e+04 </wgt>
<wgt id='1351'> +7.4687832e+04 </wgt>
<wgt id='1352'> +7.6032497e+04 </wgt>
<wgt id='1353'> +7.6816706e+04 </wgt>
<wgt id='1354'> +7.4796943e+04 </wgt>
<wgt id='1355'> +7.4870053e+04 </wgt>
<wgt id='1356'> +7.4526802e+04 </wgt>
<wgt id='1357'> +7.4544510e+04 </wgt>
<wgt id='1358'> +7.4954823e+04 </wgt>
<wgt id='1359'> +7.4521936e+04 </wgt>
<wgt id='1360'> +7.5896140e+04 </wgt>
<wgt id='1361'> +7.6376978e+04 </wgt>
<wgt id='1362'> +7.6343084e+04 </wgt>
<wgt id='1363'> +7.5326839e+04 </wgt>
<wgt id='1364'> +7.5388963e+04 </wgt>
<wgt id='1365'> +7.5010720e+04 </wgt>
<wgt id='1366'> +7.4502563e+04 </wgt>
<wgt id='1367'> +7.6306854e+04 </wgt>
<wgt id='1368'> +7.4529492e+04 </wgt>
<wgt id='1369'> +7.3737161e+04 </wgt>
<wgt id='1370'> +7.3789055e+04 </wgt>
<wgt id='1371'> +7.5515367e+04 </wgt>
<wgt id='1372'> +7.6108877e+04 </wgt>
<wgt id='1373'> +7.4196919e+04 </wgt>
<wgt id='1374'> +7.5031754e+04 </wgt>
<wgt id='1375'> +7.4681165e+04 </wgt>
<wgt id='1376'> +7.4799124e+04 </wgt>
<wgt id='1377'> +7.4598698e+04 </wgt>
<wgt id='1378'> +7.3035214e+04 </wgt>
<wgt id='1379'> +7.5019712e+04 </wgt>
<wgt id='1380'> +7.5576637e+04 </wgt>
<wgt id='1381'> +7.5059657e+04 </wgt>
<wgt id='1382'> +7.3681699e+04 </wgt>
<wgt id='1383'> +7.4466675e+04 </wgt>
<wgt id='1384'> +7.5116314e+04 </wgt>
<wgt id='1385'> +7.3428974e+04 </wgt>
<wgt id='1386'> +7.5446479e+04 </wgt>
<wgt id='1387'> +7.3080031e+04 </wgt>
<wgt id='1388'> +7.5014079e+04 </wgt>
<wgt id='1389'> +7.4476430e+04 </wgt>
<wgt id='1390'> +7.3701691e+04 </wgt>
<wgt id='1391'> +7.4493219e+04 </wgt>
<wgt id='1392'> +7.4197053e+04 </wgt>
<wgt id='1393'> +7.2673996e+04 </wgt>
<wgt id='1394'> +7.5010720e+04 </wgt>
<wgt id='1395'> +7.5975597e+04 </wgt>
<wgt id='1396'> +7.3541803e+04 </wgt>
<wgt id='1397'> +7.5419445e+04 </wgt>
<wgt id='1398'> +7.5455567e+04 </wgt>
<wgt id='1399'> +7.5053865e+04 </wgt>
<wgt id='1400'> +7.6038468e+04 </wgt>
<wgt id='1401'> +7.5236457e+04 </wgt>
<wgt id='1402'> +7.5044732e+04 </wgt>
<wgt id='1403'> +7.5432280e+04 </wgt>
<wgt id='1404'> +7.5162886e+04 </wgt>
<wgt id='1405'> +7.4261479e+04 </wgt>
<wgt id='1406'> +7.3492983e+04 </wgt>
<wgt id='1407'> +7.6014046e+04 </wgt>
<wgt id='1408'> +7.4922287e+04 </wgt>
<wgt id='1409'> +7.3156712e+04 </wgt>
<wgt id='1410'> +7.5152382e+04 </wgt>
<wgt id='1411'> +7.5212682e+04 </wgt>
<wgt id='1412'> +7.5212693e+04 </wgt>
<wgt id='1413'> +7.5805486e+04 </wgt>
<wgt id='1414'> +7.3310706e+04 </wgt>
<wgt id='1415'> +7.4096277e+04 </wgt>
<wgt id='1416'> +7.4334724e+04 </wgt>
<wgt id='1417'> +7.4739324e+04 </wgt>
<wgt id='1418'> +7.5755354e+04 </wgt>
<wgt id='1419'> +7.4268085e+04 </wgt>
<wgt id='1420'> +7.3609770e+04 </wgt>
<wgt id='1421'> +7.5470735e+04 </wgt>
<wgt id='1422'> +7.4612929e+04 </wgt>
<wgt id='1423'> +7.5357694e+04 </wgt>
<wgt id='1424'> +7.2442291e+04 </wgt>
<wgt id='1425'> +7.4188130e+04 </wgt>
<wgt id='1426'> +7.4171291e+04 </wgt>
<wgt id='1427'> +7.5423852e+04 </wgt>
<wgt id='1428'> +7.5575048e+04 </wgt>
<wgt id='1429'> +7.4909051e+04 </wgt>
<wgt id='1430'> +7.4581305e+04 </wgt>
<wgt id='1431'> +7.4744387e+04 </wgt>
<wgt id='1432'> +7.4885566e+04 </wgt>
<wgt id='1433'> +7.4768805e+04 </wgt>
<wgt id='1434'> +7.4708839e+04 </wgt>
<wgt id='1435'> +7.4557331e+04 </wgt>
<wgt id='1436'> +7.4367245e+04 </wgt>
<wgt id='1437'> +7.5199074e+04 </wgt>
<wgt id='1438'> +7.4925109e+04 </wgt>
<wgt id='1439'> +7.4420853e+04 </wgt>
<wgt id='1440'> +7.4724900e+04 </wgt>
<wgt id='1441'> +7.4580038e+04 </wgt>
<wgt id='1442'> +7.4877474e+04 </wgt>
<wgt id='1443'> +7.4647925e+04 </wgt>
<wgt id='1444'> +7.4506185e+04 </wgt>
<wgt id='1445'> +7.4835962e+04 </wgt>
<wgt id='1446'> +7.4500680e+04 </wgt>
<wgt id='1447'> +7.4570815e+04 </wgt>
<wgt id='1448'> +7.4854347e+04 </wgt>
<wgt id='1449'> +7.4790911e+04 </wgt>
<wgt id='1450'> +7.4709155e+04 </wgt>
<wgt id='1451'> +7.4683428e+04 </wgt>
<wgt id='1452'> +7.4636227e+04 </wgt>
<wgt id='1453'> +7.4725372e+04 </wgt>
<wgt id='1454'> +7.4689266e+04 </wgt>
<wgt id='1455'> +7.4849543e+04 </wgt>
<wgt id='1456'> +7.4769572e+04 </wgt>
<wgt id='1457'> +7.4771342e+04 </wgt>
<wgt id='1458'> +7.4602834e+04 </wgt>
<wgt id='1459'> +7.4621094e+04 </wgt>
<wgt id='1460'> +7.4816211e+04 </wgt>
<wgt id='1461'> +7.4717452e+04 </wgt>
<wgt id='1462'> +7.4735018e+04 </wgt>
<wgt id='1463'> +7.4755840e+04 </wgt>
<wgt id='1464'> +7.4723620e+04 </wgt>
<wgt id='1465'> +7.4770977e+04 </wgt>
<wgt id='1466'> +7.4715590e+04 </wgt>
<wgt id='1467'> +7.4780251e+04 </wgt>
<wgt id='1468'> +7.4733499e+04 </wgt>
<wgt id='1469'> +7.4716897e+04 </wgt>
<wgt id='1470'> +7.4720326e+04 </wgt>
<wgt id='1471'> +7.4694751e+04 </wgt>
<wgt id='1472'> +7.4753688e+04 </wgt>
<wgt id='1473'> +7.4786319e+04 </wgt>
<wgt id='1474'> +7.4744178e+04 </wgt>
<wgt id='1475'> +7.4758516e+04 </wgt>
<wgt id='1476'> +7.4729210e+04 </wgt>
<wgt id='1477'> +7.4735877e+04 </wgt>
<wgt id='1478'> +7.4728206e+04 </wgt>
<wgt id='1479'> +7.4737177e+04 </wgt>
<wgt id='1480'> +7.4732848e+04 </wgt>
<wgt id='1481'> +7.4766824e+04 </wgt>
<wgt id='1482'> +7.4909051e+04 </wgt>
<wgt id='1483'> +7.4581305e+04 </wgt>
<wgt id='1484'> +7.4775442e+04 </wgt>
<wgt id='1485'> +7.5227437e+04 </wgt>
<wgt id='1486'> +7.4880693e+04 </wgt>
<wgt id='1487'> +7.5310734e+04 </wgt>
<wgt id='1488'> +7.5171539e+04 </wgt>
<wgt id='1489'> +7.5118790e+04 </wgt>
<wgt id='1490'> +7.3856759e+04 </wgt>
<wgt id='1491'> +7.3328486e+04 </wgt>
<wgt id='1492'> +7.4146272e+04 </wgt>
<wgt id='1493'> +7.5268364e+04 </wgt>
<wgt id='1494'> +7.4262893e+04 </wgt>
<wgt id='1495'> +7.4231468e+04 </wgt>
<wgt id='1496'> +7.4356722e+04 </wgt>
<wgt id='1497'> +7.3377425e+04 </wgt>
<wgt id='1498'> +7.5948094e+04 </wgt>
<wgt id='1499'> +7.5206741e+04 </wgt>
<wgt id='1500'> +7.3676341e+04 </wgt>
<wgt id='1501'> +7.4399757e+04 </wgt>
<wgt id='1502'> +7.5663463e+04 </wgt>
<wgt id='1503'> +7.3631530e+04 </wgt>
<wgt id='1504'> +7.4568701e+04 </wgt>
<wgt id='1505'> +7.4602003e+04 </wgt>
<wgt id='1506'> +7.5331047e+04 </wgt>
<wgt id='1507'> +7.4693878e+04 </wgt>
<wgt id='1508'> +7.3288559e+04 </wgt>
<wgt id='1509'> +7.3943750e+04 </wgt>
<wgt id='1510'> +7.3329640e+04 </wgt>
<wgt id='1511'> +7.3753386e+04 </wgt>
<wgt id='1512'> +7.5048862e+04 </wgt>
<wgt id='1513'> +7.3962628e+04 </wgt>
<wgt id='1514'> +7.5260526e+04 </wgt>
<wgt id='1515'> +7.4590421e+04 </wgt>
<wgt id='1516'> +7.4078739e+04 </wgt>
<wgt id='1517'> +7.5215502e+04 </wgt>
<wgt id='1518'> +7.5308259e+04 </wgt>
<wgt id='1519'> +7.4943946e+04 </wgt>
<wgt id='1520'> +7.3459854e+04 </wgt>
<wgt id='1521'> +7.4424697e+04 </wgt>
<wgt id='1522'> +7.4891576e+04 </wgt>
<wgt id='1523'> +7.4533464e+04 </wgt>
<wgt id='1524'> +7.5452680e+04 </wgt>
<wgt id='1525'> +7.5425454e+04 </wgt>
<wgt id='1526'> +7.4821109e+04 </wgt>
<wgt id='1527'> +7.5224983e+04 </wgt>
<wgt id='1528'> +7.4783570e+04 </wgt>
<wgt id='1529'> +7.5051697e+04 </wgt>
<wgt id='1530'> +7.4210541e+04 </wgt>
<wgt id='1531'> +7.4012932e+04 </wgt>
<wgt id='1532'> +7.4114871e+04 </wgt>
<wgt id='1533'> +7.4721673e+04 </wgt>
<wgt id='1534'> +7.4512412e+04 </wgt>
<wgt id='1535'> +7.4233135e+04 </wgt>
<wgt id='1536'> +7.5324468e+04 </wgt>
<wgt id='1537'> +7.3822720e+04 </wgt>
<wgt id='1538'> +7.6135535e+04 </wgt>
<wgt id='1539'> +7.5409500e+04 </wgt>
<wgt id='1540'> +7.4996103e+04 </wgt>
<wgt id='1541'> +7.5439659e+04 </wgt>
<wgt id='1542'> +7.5236059e+04 </wgt>
<wgt id='1543'> +7.5194393e+04 </wgt>
<wgt id='1544'> +7.5872558e+04 </wgt>
<wgt id='1545'> +7.5190485e+04 </wgt>
<wgt id='1546'> +7.5088454e+04 </wgt>
<wgt id='1547'> +7.5661250e+04 </wgt>
<wgt id='1548'> +7.4604147e+04 </wgt>
<wgt id='1549'> +7.5218702e+04 </wgt>
<wgt id='1550'> +7.4737226e+04 </wgt>
<wgt id='1551'> +7.5869317e+04 </wgt>
<wgt id='1552'> +7.5106833e+04 </wgt>
<wgt id='1553'> +7.5785338e+04 </wgt>
<wgt id='1554'> +7.2777600e+04 </wgt>
<wgt id='1555'> +7.5024668e+04 </wgt>
<wgt id='1556'> +7.5396260e+04 </wgt>
<wgt id='1557'> +7.4243682e+04 </wgt>
<wgt id='1558'> +7.5413845e+04 </wgt>
<wgt id='1559'> +7.6066440e+04 </wgt>
<wgt id='1560'> +7.5669830e+04 </wgt>
<wgt id='1561'> +7.5200074e+04 </wgt>
<wgt id='1562'> +7.5029858e+04 </wgt>
<wgt id='1563'> +7.5228959e+04 </wgt>
<wgt id='1564'> +7.4374894e+04 </wgt>
<wgt id='1565'> +7.3917358e+04 </wgt>
<wgt id='1566'> +7.4890449e+04 </wgt>
<wgt id='1567'> +7.5974880e+04 </wgt>
<wgt id='1568'> +7.4787200e+04 </wgt>
<wgt id='1569'> +7.5815410e+04 </wgt>
<wgt id='1570'> +7.5398686e+04 </wgt>
<wgt id='1571'> +7.5728828e+04 </wgt>
<wgt id='1572'> +7.4514195e+04 </wgt>
<wgt id='1573'> +7.5385502e+04 </wgt>
<wgt id='1574'> +7.3102807e+04 </wgt>
<wgt id='1575'> +7.4649038e+04 </wgt>
<wgt id='1576'> +7.5648909e+04 </wgt>
<wgt id='1577'> +7.4427433e+04 </wgt>
<wgt id='1578'> +7.4481874e+04 </wgt>
<wgt id='1579'> +7.4601463e+04 </wgt>
<wgt id='1580'> +7.5520064e+04 </wgt>
<wgt id='1581'> +7.5180274e+04 </wgt>
<wgt id='1582'> +7.5959653e+04 </wgt>
<wgt id='1583'> +7.2595313e+04 </wgt>
<wgt id='1584'> +7.2818788e+04 </wgt>
<wgt id='1585'> +7.2616705e+04 </wgt>
<wgt id='1586'> +7.0600089e+04 </wgt>
<wgt id='1587'> +7.4850224e+04 </wgt>
<wgt id='1588'> +7.4909051e+04 </wgt>
<wgt id='1589'> +7.4675447e+04 </wgt>
<wgt id='1590'> +7.4455530e+04 </wgt>
<wgt id='1591'> +7.4581305e+04 </wgt>
<wgt id='1592'> +7.4341315e+04 </wgt>
<wgt id='1593'> +7.3411288e+04 </wgt>
<wgt id='1594'> +7.3093135e+04 </wgt>
<wgt id='1595'> +7.2302831e+04 </wgt>
<wgt id='1596'> +7.2112240e+04 </wgt>
<wgt id='1597'> +7.4865852e+04 </wgt>
<wgt id='1598'> +7.1911905e+04 </wgt>
<wgt id='1599'> +7.4472756e+04 </wgt>
<wgt id='1600'> +7.0898202e+04 </wgt>
<wgt id='1601'> +7.5688555e+04 </wgt>
<wgt id='1602'> +7.2680859e+04 </wgt>
<wgt id='1603'> +7.4181028e+04 </wgt>
<wgt id='1604'> +7.3827960e+04 </wgt>
<wgt id='1605'> +7.3274756e+04 </wgt>
<wgt id='1606'> +7.3323472e+04 </wgt>
<wgt id='1607'> +7.2544837e+04 </wgt>
<wgt id='1608'> +7.2407589e+04 </wgt>
<wgt id='1609'> +7.3490396e+04 </wgt>
<wgt id='1610'> +7.2021085e+04 </wgt>
<wgt id='1611'> +7.4353397e+04 </wgt>
<wgt id='1612'> +7.4747705e+04 </wgt>
<wgt id='1613'> +7.0607305e+04 </wgt>
<wgt id='1614'> +7.3243911e+04 </wgt>
<wgt id='1615'> +7.3648927e+04 </wgt>
<wgt id='1616'> +7.2401489e+04 </wgt>
<wgt id='1617'> +7.3930734e+04 </wgt>
<wgt id='1618'> +7.3737343e+04 </wgt>
<wgt id='1619'> +7.2686563e+04 </wgt>
<wgt id='1620'> +7.2968946e+04 </wgt>
<wgt id='1621'> +7.3503771e+04 </wgt>
<wgt id='1622'> +7.3400520e+04 </wgt>
<wgt id='1623'> +7.2737706e+04 </wgt>
<wgt id='1624'> +7.3442421e+04 </wgt>
<wgt id='1625'> +7.2367045e+04 </wgt>
<wgt id='1626'> +7.2427875e+04 </wgt>
<wgt id='1627'> +7.3938717e+04 </wgt>
<wgt id='1628'> +7.4481985e+04 </wgt>
<wgt id='1629'> +7.2737071e+04 </wgt>
<wgt id='1630'> +7.4623970e+04 </wgt>
<wgt id='1631'> +7.1644414e+04 </wgt>
<wgt id='1632'> +7.1827232e+04 </wgt>
<wgt id='1633'> +7.4529249e+04 </wgt>
<wgt id='1634'> +7.4754308e+04 </wgt>
<wgt id='1635'> +7.1955270e+04 </wgt>
<wgt id='1636'> +7.2912944e+04 </wgt>
<wgt id='1637'> +7.4014882e+04 </wgt>
<wgt id='1638'> +7.2622691e+04 </wgt>
<wgt id='1639'> +7.3695203e+04 </wgt>
<wgt id='1640'> +7.5115933e+04 </wgt>
<wgt id='1641'> +7.1808967e+04 </wgt>
<wgt id='1642'> +7.3281485e+04 </wgt>
<wgt id='1643'> +7.3029636e+04 </wgt>
<wgt id='1644'> +7.3651634e+04 </wgt>
<wgt id='1645'> +7.2197559e+04 </wgt>
<wgt id='1646'> +7.3505502e+04 </wgt>
<wgt id='1647'> +7.3416327e+04 </wgt>
<wgt id='1648'> +7.3596694e+04 </wgt>
<wgt id='1649'> +7.3481224e+04 </wgt>
<wgt id='1650'> +7.3728010e+04 </wgt>
<wgt id='1651'> +7.3087568e+04 </wgt>
<wgt id='1652'> +7.2861836e+04 </wgt>
<wgt id='1653'> +7.3124653e+04 </wgt>
<wgt id='1654'> +7.3726601e+04 </wgt>
<wgt id='1655'> +7.4070896e+04 </wgt>
<wgt id='1656'> +7.4536588e+04 </wgt>
<wgt id='1657'> +7.3867066e+04 </wgt>
<wgt id='1658'> +7.4131234e+04 </wgt>
<wgt id='1659'> +7.3733462e+04 </wgt>
<wgt id='1660'> +7.5176622e+04 </wgt>
<wgt id='1661'> +7.5416515e+04 </wgt>
<wgt id='1662'> +7.3358846e+04 </wgt>
<wgt id='1663'> +7.3978058e+04 </wgt>
<wgt id='1664'> +7.3927116e+04 </wgt>
<wgt id='1665'> +7.3474906e+04 </wgt>
<wgt id='1666'> +7.4571412e+04 </wgt>
<wgt id='1667'> +7.3439584e+04 </wgt>
<wgt id='1668'> +7.5272191e+04 </wgt>
<wgt id='1669'> +7.4914575e+04 </wgt>
<wgt id='1670'> +7.3662387e+04 </wgt>
<wgt id='1671'> +7.4674327e+04 </wgt>
<wgt id='1672'> +7.4291884e+04 </wgt>
<wgt id='1673'> +7.5253297e+04 </wgt>
<wgt id='1674'> +7.4062949e+04 </wgt>
<wgt id='1675'> +7.5168283e+04 </wgt>
<wgt id='1676'> +7.3990815e+04 </wgt>
<wgt id='1677'> +7.3615259e+04 </wgt>
<wgt id='1678'> +7.5186494e+04 </wgt>
<wgt id='1679'> +7.4316398e+04 </wgt>
<wgt id='1680'> +7.5423461e+04 </wgt>
<wgt id='1681'> +7.3854367e+04 </wgt>
<wgt id='1682'> +7.4589463e+04 </wgt>
<wgt id='1683'> +7.5421789e+04 </wgt>
<wgt id='1684'> +7.3713188e+04 </wgt>
<wgt id='1685'> +7.5341917e+04 </wgt>
<wgt id='1686'> +7.3436506e+04 </wgt>
<wgt id='1687'> +7.5427967e+04 </wgt>
<wgt id='1688'> +7.3072431e+04 </wgt>
<wgt id='1689'> +7.5260394e+04 </wgt>
<wgt id='1690'> +7.4074690e+04 </wgt>
<wgt id='1691'> +7.4149982e+04 </wgt>
<wgt id='1692'> +7.4320300e+04 </wgt>
<wgt id='1693'> +7.5766446e+04 </wgt>
<wgt id='1694'> +7.3750893e+04 </wgt>
<wgt id='1695'> +7.4383751e+04 </wgt>
<wgt id='1696'> +7.4378070e+04 </wgt>
<wgt id='1697'> +7.5495239e+04 </wgt>
<wgt id='1698'> +7.3728349e+04 </wgt>
<wgt id='1699'> +7.2866237e+04 </wgt>
<wgt id='1700'> +7.6593856e+04 </wgt>
<wgt id='1701'> +7.4354448e+04 </wgt>
<wgt id='1702'> +7.4817049e+04 </wgt>
<wgt id='1703'> +7.4856768e+04 </wgt>
<wgt id='1704'> +7.4582900e+04 </wgt>
<wgt id='1705'> +7.3338136e+04 </wgt>
<wgt id='1706'> +7.5392281e+04 </wgt>
<wgt id='1707'> +7.3123820e+04 </wgt>
<wgt id='1708'> +7.5522407e+04 </wgt>
<wgt id='1709'> +7.4094839e+04 </wgt>
<wgt id='1710'> +7.5195053e+04 </wgt>
<wgt id='1711'> +7.3315085e+04 </wgt>
<wgt id='1712'> +7.5098831e+04 </wgt>
<wgt id='1713'> +7.4318688e+04 </wgt>
<wgt id='1714'> +7.4527052e+04 </wgt>
<wgt id='1715'> +7.1952188e+04 </wgt>
<wgt id='1716'> +7.4791454e+04 </wgt>
<wgt id='1717'> +7.0124576e+04 </wgt>
<wgt id='1718'> +7.0208364e+04 </wgt>
<wgt id='1719'> +7.0015584e+04 </wgt>
<wgt id='1720'> +6.9839006e+04 </wgt>
<wgt id='1721'> +7.0385935e+04 </wgt>
<wgt id='1722'> +6.9927975e+04 </wgt>
<wgt id='1723'> +7.0447221e+04 </wgt>
<wgt id='1724'> +7.0418441e+04 </wgt>
<wgt id='1725'> +6.9885927e+04 </wgt>
<wgt id='1726'> +6.9994058e+04 </wgt>
<wgt id='1727'> +7.0258881e+04 </wgt>
<wgt id='1728'> +6.9415857e+04 </wgt>
<wgt id='1729'> +7.0813381e+04 </wgt>
<wgt id='1730'> +7.0344759e+04 </wgt>
<wgt id='1731'> +6.9968113e+04 </wgt>
<wgt id='1732'> +7.0483187e+04 </wgt>
<wgt id='1733'> +7.0483187e+04 </wgt>
<wgt id='1734'> +7.0090827e+04 </wgt>
<wgt id='1735'> +7.0143283e+04 </wgt>
<wgt id='1736'> +7.0085200e+04 </wgt>
<wgt id='1737'> +7.0182688e+04 </wgt>
<wgt id='1738'> +7.0446586e+04 </wgt>
<wgt id='1739'> +6.9549033e+04 </wgt>
<wgt id='1740'> +7.0038911e+04 </wgt>
<wgt id='1741'> +7.0329572e+04 </wgt>
<wgt id='1742'> +7.0303212e+04 </wgt>
<wgt id='1743'> +6.9925367e+04 </wgt>
<wgt id='1744'> +6.9953072e+04 </wgt>
<wgt id='1745'> +7.0592098e+04 </wgt>
<wgt id='1746'> +6.9993282e+04 </wgt>
<wgt id='1747'> +7.0179759e+04 </wgt>
<wgt id='1748'> +7.0245558e+04 </wgt>
<wgt id='1749'> +6.9658827e+04 </wgt>
<wgt id='1750'> +7.0094129e+04 </wgt>
<wgt id='1751'> +7.0156497e+04 </wgt>
<wgt id='1752'> +6.9805940e+04 </wgt>
<wgt id='1753'> +7.0543926e+04 </wgt>
<wgt id='1754'> +7.0164552e+04 </wgt>
<wgt id='1755'> +7.0097569e+04 </wgt>
<wgt id='1756'> +6.9841869e+04 </wgt>
<wgt id='1757'> +7.0852790e+04 </wgt>
<wgt id='1758'> +7.0506760e+04 </wgt>
<wgt id='1759'> +6.9668964e+04 </wgt>
<wgt id='1760'> +7.0780459e+04 </wgt>
<wgt id='1761'> +6.9584165e+04 </wgt>
<wgt id='1762'> +7.0102053e+04 </wgt>
<wgt id='1763'> +6.9860212e+04 </wgt>
<wgt id='1764'> +6.9968946e+04 </wgt>
<wgt id='1765'> +7.0844364e+04 </wgt>
<wgt id='1766'> +7.0060110e+04 </wgt>
<wgt id='1767'> +7.0245294e+04 </wgt>
<wgt id='1768'> +6.9961249e+04 </wgt>
<wgt id='1769'> +7.0271553e+04 </wgt>
<wgt id='1770'> +6.9938804e+04 </wgt>
<wgt id='1771'> +7.0197664e+04 </wgt>
<wgt id='1772'> +7.0409164e+04 </wgt>
<wgt id='1773'> +6.9932461e+04 </wgt>
<wgt id='1774'> +6.9712147e+04 </wgt>
<wgt id='1775'> +7.0394275e+04 </wgt>
<wgt id='1776'> +7.0145936e+04 </wgt>
<wgt id='1777'> +7.0132688e+04 </wgt>
<wgt id='1778'> +6.9709084e+04 </wgt>
<wgt id='1779'> +7.0181098e+04 </wgt>
<wgt id='1780'> +7.0931589e+04 </wgt>
<wgt id='1781'> +7.0256026e+04 </wgt>
<wgt id='1782'> +7.0124576e+04 </wgt>
<wgt id='1783'> +7.0101271e+04 </wgt>
<wgt id='1784'> +7.2388121e+04 </wgt>
<wgt id='1785'> +7.2685099e+04 </wgt>
<wgt id='1786'> +7.0853101e+04 </wgt>
<wgt id='1787'> +7.2445654e+04 </wgt>
<wgt id='1788'> +7.2223563e+04 </wgt>
<wgt id='1789'> +7.2482670e+04 </wgt>
<wgt id='1790'> +7.2839378e+04 </wgt>
<wgt id='1791'> +7.2603704e+04 </wgt>
<wgt id='1792'> +7.1931484e+04 </wgt>
<wgt id='1793'> +7.2777475e+04 </wgt>
<wgt id='1794'> +7.2470161e+04 </wgt>
<wgt id='1795'> +7.1771614e+04 </wgt>
<wgt id='1796'> +7.2460424e+04 </wgt>
<wgt id='1797'> +7.2445485e+04 </wgt>
<wgt id='1798'> +7.2679901e+04 </wgt>
<wgt id='1799'> +7.2961739e+04 </wgt>
<wgt id='1800'> +7.2518825e+04 </wgt>
<wgt id='1801'> +7.3837642e+04 </wgt>
<wgt id='1802'> +7.3091355e+04 </wgt>
<wgt id='1803'> +7.2532332e+04 </wgt>
<wgt id='1804'> +7.2493888e+04 </wgt>
<wgt id='1805'> +7.2442311e+04 </wgt>
<wgt id='1806'> +7.2379361e+04 </wgt>
<wgt id='1807'> +7.2396485e+04 </wgt>
<wgt id='1808'> +7.2449178e+04 </wgt>
<wgt id='1809'> +7.2468445e+04 </wgt>
<wgt id='1810'> +7.2342460e+04 </wgt>
<wgt id='1811'> +7.2392697e+04 </wgt>
<wgt id='1812'> +7.2372287e+04 </wgt>
<wgt id='1813'> +7.2244279e+04 </wgt>
<wgt id='1814'> +7.2510898e+04 </wgt>
<wgt id='1815'> +7.2281713e+04 </wgt>
<wgt id='1816'> +7.2421480e+04 </wgt>
<wgt id='1817'> +7.2407601e+04 </wgt>
<wgt id='1818'> +7.2356243e+04 </wgt>
<wgt id='1819'> +7.2232178e+04 </wgt>
<wgt id='1820'> +7.2415576e+04 </wgt>
<wgt id='1821'> +7.2432727e+04 </wgt>
<wgt id='1822'> +7.2225865e+04 </wgt>
<wgt id='1823'> +7.2414578e+04 </wgt>
<wgt id='1824'> +7.2384625e+04 </wgt>
<wgt id='1825'> +7.2184052e+04 </wgt>
<wgt id='1826'> +7.2815690e+04 </wgt>
<wgt id='1827'> +8.1239137e+04 </wgt>
<wgt id='1828'> +8.1453748e+04 </wgt>
<wgt id='1829'> +8.1048781e+04 </wgt>
<wgt id='1830'> +8.1197799e+04 </wgt>
<wgt id='1831'> +8.1303567e+04 </wgt>
<wgt id='1832'> +8.1359752e+04 </wgt>
<wgt id='1833'> +8.1141531e+04 </wgt>
<wgt id='1834'> +8.0879039e+04 </wgt>
<wgt id='1835'> +8.1603781e+04 </wgt>
<wgt id='1836'> +8.1525688e+04 </wgt>
<wgt id='1837'> +8.0967265e+04 </wgt>
<wgt id='1838'> +8.1224913e+04 </wgt>
<wgt id='1839'> +8.1275242e+04 </wgt>
<wgt id='1840'> +8.1061582e+04 </wgt>
<wgt id='1841'> +8.1444395e+04 </wgt>
<wgt id='1842'> +8.1243495e+04 </wgt>
<wgt id='1843'> +8.1398847e+04 </wgt>
<wgt id='1844'> +8.1188003e+04 </wgt>
<wgt id='1845'> +8.1293700e+04 </wgt>
<wgt id='1846'> +8.1324034e+04 </wgt>
<wgt id='1847'> +8.1168507e+04 </wgt>
<wgt id='1848'> +8.0659495e+04 </wgt>
<wgt id='1849'> +8.1734310e+04 </wgt>
<wgt id='1850'> +8.1199639e+04 </wgt>
<wgt id='1851'> +8.1311035e+04 </wgt>
<wgt id='1852'> +8.1102906e+04 </wgt>
<wgt id='1853'> +8.1230181e+04 </wgt>
<wgt id='1854'> +8.1183075e+04 </wgt>
<wgt id='1855'> +8.1296941e+04 </wgt>
<wgt id='1856'> +6.9883890e+04 </wgt>
<wgt id='1857'> +6.9872453e+04 </wgt>
<wgt id='1858'> +6.9853707e+04 </wgt>
<wgt id='1859'> +6.9914278e+04 </wgt>
<wgt id='1860'> +6.9886293e+04 </wgt>
<wgt id='1861'> +7.0006380e+04 </wgt>
<wgt id='1862'> +6.9538510e+04 </wgt>
<wgt id='1863'> +6.9952291e+04 </wgt>
<wgt id='1864'> +6.9755302e+04 </wgt>
<wgt id='1865'> +6.9700832e+04 </wgt>
<wgt id='1866'> +7.0084837e+04 </wgt>
<wgt id='1867'> +6.9866487e+04 </wgt>
<wgt id='1868'> +6.9821512e+04 </wgt>
<wgt id='1869'> +6.9977914e+04 </wgt>
<wgt id='1870'> +6.9787867e+04 </wgt>
<wgt id='1871'> +7.0006430e+04 </wgt>
<wgt id='1872'> +6.9812588e+04 </wgt>
<wgt id='1873'> +6.9881569e+04 </wgt>
<wgt id='1874'> +6.9979930e+04 </wgt>
<wgt id='1875'> +6.9962968e+04 </wgt>
<wgt id='1876'> +6.9696801e+04 </wgt>
<wgt id='1877'> +6.9734042e+04 </wgt>
<wgt id='1878'> +6.9808184e+04 </wgt>
<wgt id='1879'> +6.9961323e+04 </wgt>
<wgt id='1880'> +6.9995517e+04 </wgt>
<wgt id='1881'> +7.0045145e+04 </wgt>
<wgt id='1882'> +6.9861417e+04 </wgt>
<wgt id='1883'> +7.0009430e+04 </wgt>
<wgt id='1884'> +6.9738053e+04 </wgt>
<wgt id='1885'> +6.9537224e+04 </wgt>
<wgt id='1886'> +7.6328179e+04 </wgt>
<wgt id='1887'> +7.3754782e+04 </wgt>
<wgt id='1888'> +6.2802267e+04 </wgt>
<wgt id='1889'> +6.7986881e+04 </wgt>
</rwgt>
</event>
<event npLO=" -1 " npNLO=" 0 ">
 6      0 +7.4519530e+04 3.58814240e+01 7.55820760e-03 1.19189170e-01
       -3 -1    0    0    0  501 +0.0000000000e+00 +0.0000000000e+00 +6.5664479500e+01 6.5664479500e+01 0.0000000000e+00 0.0000e+00 1.0000e+00
        4 -1    0    0  502    0 +0.0000000000e+00 +0.0000000000e+00 -4.5172010806e+01 4.5172010806e+01 0.0000000000e+00 0.0000e+00 -1.0000e+00
       24  2    1    2    0    0 -1.9651882748e+01 +8.5815386319e+00 +2.4926970771e+01 8.8938908030e+01 8.2637377675e+01 0.0000e+00 0.0000e+00
      -13  1    3    3    0    0 +9.1993805475e+00 -2.7049426086e+01 +3.1608468064e+01 4.2607456007e+01 0.0000000000e+00 0.0000e+00 1.0000e+00
       14  1    3    3    0    0 -2.8851263295e+01 +3.5630964718e+01 -6.6814972934e+00 4.6331452023e+01 0.0000000000e+00 0.0000e+00 -1.0000e+00
       21  1    1    2  502  501 +1.9651882748e+01 -8.5815386319e+00 -4.4345020766e+00 2.1897582275e+01 0.0000000000e+00 0.0000e+00 -1.0000e+00
#aMCatNLO 2  0  0  2  1 0.25877158E+02 0.00000000E+00 -9  5  0 0.00000000E+00 0.00000000E+00 0.00000000E+00 0.00000000E+00 0.00000000E+00
<rwgt>
<wgt id='1001'> +7.4519530e+04 </wgt>
<wgt id='1002'> +6.7402829e+04 </wgt>
<wgt id='1003'> +8.3368158e+04 </wgt>
<wgt id='1004'> +8.5802082e+04 </wgt>
<wgt id='1005'> +7.7607890e+04 </wgt>
<wgt id='1006'> +9.5990434e+04 </wgt>
<wgt id='1007'> +6.2237770e+04 </wgt>
<wgt id='1008'> +5.6293996e+04 </wgt>
<wgt id='1009'> +6.9628037e+04 </wgt>
<wgt id='1010'> +7.4519530e+04 </wgt>
<wgt id='1011'> +7.4927126e+04 </wgt>
<wgt id='1012'> +7.4607202e+04 </wgt>
<wgt id='1013'> +7.5682814e+04 </wgt>
<wgt id='1014'> +7.4038399e+04 </wgt>
<wgt id='1015'> +7.5031802e+04 </wgt>
<wgt id='1016'> +7.4702562e+04 </wgt>
<wgt id='1017'> +7.4668816e+04 </wgt>
<wgt id='1018'> +7.5133497e+04 </wgt>
<wgt id='1019'> +7.3454482e+04 </wgt>
<wgt id='1020'> +7.5076651e+04 </wgt>
<wgt id='1021'> +7.4855263e+04 </wgt>
<wgt id='1022'> +7.3984177e+04 </wgt>
<wgt id='1023'> +7.3984470e+04 </wgt>
<wgt id='1024'> +7.3732703e+04 </wgt>
<wgt id='1025'> +7.2736626e+04 </wgt>
<wgt id='1026'> +7.5414534e+04 </wgt>
<wgt id='1027'> +7.4856983e+04 </wgt>
<wgt id='1028'> +7.6028444e+04 </wgt>
<wgt id='1029'> +7.4269005e+04 </wgt>
<wgt id='1030'> +7.4374696e+04 </wgt>
<wgt id='1031'> +7.4883954e+04 </wgt>
<wgt id='1032'> +7.3615892e+04 </wgt>
<wgt id='1033'> +7.5404067e+04 </wgt>
<wgt id='1034'> +7.6188042e+04 </wgt>
<wgt id='1035'> +7.5805140e+04 </wgt>
<wgt id='1036'> +7.4905716e+04 </wgt>
<wgt id='1037'> +7.3381660e+04 </wgt>
<wgt id='1038'> +7.3750818e+04 </wgt>
<wgt id='1039'> +7.5225193e+04 </wgt>
<wgt id='1040'> +7.4220642e+04 </wgt>
<wgt id='1041'> +7.4112099e+04 </wgt>
<wgt id='1042'> +7.4970576e+04 </wgt>
<wgt id='1043'> +7.4222302e+04 </wgt>
<wgt id='1044'> +7.4403574e+04 </wgt>
<wgt id='1045'> +7.4332567e+04 </wgt>
<wgt id='1046'> +7.4310966e+04 </wgt>
<wgt id='1047'> +7.4574537e+04 </wgt>
<wgt id='1048'> +7.4459588e+04 </wgt>
<wgt id='1049'> +7.4400995e+04 </wgt>
<wgt id='1050'> +7.3901942e+04 </wgt>
<wgt id='1051'> +7.4061130e+04 </wgt>
<wgt id='1052'> +7.4580344e+04 </wgt>
<wgt id='1053'> +7.4844978e+04 </wgt>
<wgt id='1054'> +7.4010373e+04 </wgt>
<wgt id='1055'> +7.4606718e+04 </wgt>
<wgt id='1056'> +7.4497084e+04 </wgt>
<wgt id='1057'> +7.4458026e+04 </wgt>
<wgt id='1058'> +7.4821156e+04 </wgt>
<wgt id='1059'> +7.4565056e+04 </wgt>
<wgt id='1060'> +7.4798508e+04 </wgt>
<wgt id='1061'> +7.4388857e+04 </wgt>
<wgt id='1062'> +7.4298061e+04 </wgt>
<wgt id='1063'> +7.4589107e+04 </wgt>
<wgt id='1064'> +7.4637448e+04 </wgt>
<wgt id='1065'> +7.4602717e+04 </wgt>
<wgt id='1066'> +7.4376106e+04 </wgt>
<wgt id='1067'> +7.4485302e+04 </wgt>
<wgt id='1068'> +7.4635868e+04 </wgt>
<wgt id='1069'> +7.4296308e+04 </wgt>
<wgt id='1070'> +7.4340501e+04 </wgt>
<wgt id='1071'> +7.4462080e+04 </wgt>
<wgt id='1072'> +7.4419141e+04 </wgt>
<wgt id='1073'> +7.4552428e+04 </wgt>
<wgt id='1074'> +7.4457696e+04 </wgt>
<wgt id='1075'> +7.4467470e+04 </wgt>
<wgt id='1076'> +7.4665806e+04 </wgt>
<wgt id='1077'> +7.4386984e+04 </wgt>
<wgt id='1078'> +7.4519672e+04 </wgt>
<wgt id='1079'> +7.4563776e+04 </wgt>
<wgt id='1080'> +7.4465518e+04 </wgt>
<wgt id='1081'> +7.4595130e+04 </wgt>
<wgt id='1082'> +7.4522886e+04 </wgt>
<wgt id='1083'> +7.4446370e+04 </wgt>
<wgt id='1084'> +7.4504204e+04 </wgt>
<wgt id='1085'> +7.4368684e+04 </wgt>
<wgt id='1086'> +7.4580202e+04 </wgt>
<wgt id='1087'> +7.4609622e+04 </wgt>
<wgt id='1088'> +7.4558619e+04 </wgt>
<wgt id='1089'> +7.4537970e+04 </wgt>
<wgt id='1090'> +7.4572548e+04 </wgt>
<wgt id='1091'> +7.4482141e+04 </wgt>
<wgt id='1092'> +7.4305114e+04 </wgt>
<wgt id='1093'> +7.4456340e+04 </wgt>
<wgt id='1094'> +7.4572748e+04 </wgt>
<wgt id='1095'> +7.4560893e+04 </wgt>
<wgt id='1096'> +7.4604655e+04 </wgt>
<wgt id='1097'> +7.4451922e+04 </wgt>
<wgt id='1098'> +7.4639820e+04 </wgt>
<wgt id='1099'> +7.4567803e+04 </wgt>
<wgt id='1100'> +7.4598528e+04 </wgt>
<wgt id='1101'> +7.4547881e+04 </wgt>
<wgt id='1102'> +7.4512364e+04 </wgt>
<wgt id='1103'> +7.4548831e+04 </wgt>
<wgt id='1104'> +7.4343282e+04 </wgt>
<wgt id='1105'> +7.4467467e+04 </wgt>
<wgt id='1106'> +7.4467726e+04 </wgt>
<wgt id='1107'> +7.4504977e+04 </wgt>
<wgt id='1108'> +7.4579389e+04 </wgt>
<wgt id='1109'> +7.4500874e+04 </wgt>
<wgt id='1110'> +7.4519525e+04 </wgt>
<wgt id='1111'> +7.0609082e+04 </wgt>
<wgt id='1112'> +7.7263645e+04 </wgt>
<wgt id='1113'> +7.4519525e+04 </wgt>
<wgt id='1114'> +6.0332578e+04 </wgt>
<wgt id='1115'> +7.6704099e+04 </wgt>
<wgt id='1116'> +8.1752145e+04 </wgt>
<wgt id='1117'> +7.6023564e+04 </wgt>
<wgt id='1118'> +7.4904822e+04 </wgt>
<wgt id='1119'> +6.1995931e+04 </wgt>
<wgt id='1120'> +7.1153495e+04 </wgt>
<wgt id='1121'> +8.4436573e+04 </wgt>
<wgt id='1122'> +7.8876678e+04 </wgt>
<wgt id='1123'> +7.3484682e+04 </wgt>
<wgt id='1124'> +7.3538724e+04 </wgt>
<wgt id='1125'> +7.9559452e+04 </wgt>
<wgt id='1126'> +7.7289094e+04 </wgt>
<wgt id='1127'> +7.5083645e+04 </wgt>
<wgt id='1128'> +7.4440442e+04 </wgt>
<wgt id='1129'> +7.1713357e+04 </wgt>
<wgt id='1130'> +7.0447128e+04 </wgt>
<wgt id='1131'> +7.6037956e+04 </wgt>
<wgt id='1132'> +7.6464476e+04 </wgt>
<wgt id='1133'> +8.4616868e+04 </wgt>
<wgt id='1134'> +7.7481041e+04 </wgt>
<wgt id='1135'> +7.5537504e+04 </wgt>
<wgt id='1136'> +7.0339733e+04 </wgt>
<wgt id='1137'> +8.1697226e+04 </wgt>
<wgt id='1138'> +8.0139651e+04 </wgt>
<wgt id='1139'> +7.2741688e+04 </wgt>
<wgt id='1140'> +7.3090459e+04 </wgt>
<wgt id='1141'> +7.7286594e+04 </wgt>
<wgt id='1142'> +7.2010949e+04 </wgt>
<wgt id='1143'> +7.0543567e+04 </wgt>
<wgt id='1144'> +6.8451157e+04 </wgt>
<wgt id='1145'> +7.7550744e+04 </wgt>
<wgt id='1146'> +7.1423752e+04 </wgt>
<wgt id='1147'> +8.3902189e+04 </wgt>
<wgt id='1148'> +7.3283594e+04 </wgt>
<wgt id='1149'> +7.7189508e+04 </wgt>
<wgt id='1150'> +7.5763771e+04 </wgt>
<wgt id='1151'> +7.5857184e+04 </wgt>
<wgt id='1152'> +7.2746794e+04 </wgt>
<wgt id='1153'> +7.1367957e+04 </wgt>
<wgt id='1154'> +7.4180230e+04 </wgt>
<wgt id='1155'> +7.0081471e+04 </wgt>
<wgt id='1156'> +7.0799917e+04 </wgt>
<wgt id='1157'> +6.7241829e+04 </wgt>
<wgt id='1158'> +7.4316793e+04 </wgt>
<wgt id='1159'> +7.0558784e+04 </wgt>
<wgt id='1160'> +7.5045468e+04 </wgt>
<wgt id='1161'> +7.8419725e+04 </wgt>
<wgt id='1162'> +7.0482438e+04 </wgt>
<wgt id='1163'> +7.0663872e+04 </wgt>
<wgt id='1164'> +7.6026230e+04 </wgt>
<wgt id='1165'> +7.5977756e+04 </wgt>
<wgt id='1166'> +7.7657076e+04 </wgt>
<wgt id='1167'> +6.8780323e+04 </wgt>
<wgt id='1168'> +7.6457611e+04 </wgt>
<wgt id='1169'> +7.6264734e+04 </wgt>
<wgt id='1170'> +7.3566642e+04 </wgt>
<wgt id='1171'> +7.9498003e+04 </wgt>
<wgt id='1172'> +7.4790782e+04 </wgt>
<wgt id='1173'> +6.9743599e+04 </wgt>
<wgt id='1174'> +6.8978833e+04 </wgt>
<wgt id='1175'> +7.4773733e+04 </wgt>
<wgt id='1176'> +7.4480351e+04 </wgt>
<wgt id='1177'> +8.1818048e+04 </wgt>
<wgt id='1178'> +7.0402212e+04 </wgt>
<wgt id='1179'> +6.8334330e+04 </wgt>
<wgt id='1180'> +6.6250428e+04 </wgt>
<wgt id='1181'> +7.0821706e+04 </wgt>
<wgt id='1182'> +7.5024895e+04 </wgt>
<wgt id='1183'> +7.5808046e+04 </wgt>
<wgt id='1184'> +7.4624129e+04 </wgt>
<wgt id='1185'> +6.8193053e+04 </wgt>
<wgt id='1186'> +8.2209137e+04 </wgt>
<wgt id='1187'> +8.2672297e+04 </wgt>
<wgt id='1188'> +7.5417482e+04 </wgt>
<wgt id='1189'> +6.6126948e+04 </wgt>
<wgt id='1190'> +7.7089222e+04 </wgt>
<wgt id='1191'> +7.4374147e+04 </wgt>
<wgt id='1192'> +7.9015303e+04 </wgt>
<wgt id='1193'> +6.9997897e+04 </wgt>
<wgt id='1194'> +7.6508915e+04 </wgt>
<wgt id='1195'> +7.1713357e+04 </wgt>
<wgt id='1196'> +7.2904229e+04 </wgt>
<wgt id='1197'> +8.1810304e+04 </wgt>
<wgt id='1198'> +7.5506177e+04 </wgt>
<wgt id='1199'> +7.0543107e+04 </wgt>
<wgt id='1200'> +8.2518404e+04 </wgt>
<wgt id='1201'> +6.8091894e+04 </wgt>
<wgt id='1202'> +8.3110469e+04 </wgt>
<wgt id='1203'> +7.4975376e+04 </wgt>
<wgt id='1204'> +7.7577680e+04 </wgt>
<wgt id='1205'> +8.1494074e+04 </wgt>
<wgt id='1206'> +7.6734028e+04 </wgt>
<wgt id='1207'> +6.9278956e+04 </wgt>
<wgt id='1208'> +7.6109271e+04 </wgt>
<wgt id='1209'> +7.6811059e+04 </wgt>
<wgt id='1210'> +6.6743405e+04 </wgt>
<wgt id='1211'> +7.5037510e+04 </wgt>
<wgt id='1212'> +7.7944264e+04 </wgt>
<wgt id='1213'> +7.4803597e+04 </wgt>
<wgt id='1214'> +7.4508561e+04 </wgt>
<wgt id='1215'> +5.7098712e+04 </wgt>
<wgt id='1216'> +6.0969265e+04 </wgt>
<wgt id='1217'> +6.3619456e+04 </wgt>
<wgt id='1218'> +6.6903234e+04 </wgt>
<wgt id='1219'> +7.2152298e+04 </wgt>
<wgt id='1220'> +7.6039718e+04 </wgt>
<wgt id='1221'> +8.1145173e+04 </wgt>
<wgt id='1222'> +8.5179347e+04 </wgt>
<wgt id='1223'> +7.0027062e+04 </wgt>
<wgt id='1224'> +7.0366368e+04 </wgt>
<wgt id='1225'> +6.9604628e+04 </wgt>
<wgt id='1226'> +7.0037970e+04 </wgt>
<wgt id='1227'> +6.9333206e+04 </wgt>
<wgt id='1228'> +6.9833731e+04 </wgt>
<wgt id='1229'> +7.0610576e+04 </wgt>
<wgt id='1230'> +6.9525912e+04 </wgt>
<wgt id='1231'> +7.0160409e+04 </wgt>
<wgt id='1232'> +6.9427860e+04 </wgt>
<wgt id='1233'> +7.1624815e+04 </wgt>
<wgt id='1234'> +7.0566617e+04 </wgt>
<wgt id='1235'> +6.9624597e+04 </wgt>
<wgt id='1236'> +6.9442562e+04 </wgt>
<wgt id='1237'> +6.9082445e+04 </wgt>
<wgt id='1238'> +7.1825926e+04 </wgt>
<wgt id='1239'> +6.8593164e+04 </wgt>
<wgt id='1240'> +7.0653000e+04 </wgt>
<wgt id='1241'> +6.9220697e+04 </wgt>
<wgt id='1242'> +7.0504757e+04 </wgt>
<wgt id='1243'> +7.1620821e+04 </wgt>
<wgt id='1244'> +6.8252635e+04 </wgt>
<wgt id='1245'> +6.9730921e+04 </wgt>
<wgt id='1246'> +7.0307369e+04 </wgt>
<wgt id='1247'> +6.9494794e+04 </wgt>
<wgt id='1248'> +7.1070584e+04 </wgt>
<wgt id='1249'> +6.9944592e+04 </wgt>
<wgt id='1250'> +7.0334926e+04 </wgt>
<wgt id='1251'> +7.0482779e+04 </wgt>
<wgt id='1252'> +6.9511789e+04 </wgt>
<wgt id='1253'> +6.9814624e+04 </wgt>
<wgt id='1254'> +7.0092330e+04 </wgt>
<wgt id='1255'> +7.0103667e+04 </wgt>
<wgt id='1256'> +6.9492148e+04 </wgt>
<wgt id='1257'> +7.0042690e+04 </wgt>
<wgt id='1258'> +6.9700237e+04 </wgt>
<wgt id='1259'> +6.9689872e+04 </wgt>
<wgt id='1260'> +6.9728224e+04 </wgt>
<wgt id='1261'> +7.0030205e+04 </wgt>
<wgt id='1262'> +6.9895430e+04 </wgt>
<wgt id='1263'> +6.9590553e+04 </wgt>
<wgt id='1264'> +7.0477212e+04 </wgt>
<wgt id='1265'> +7.0078003e+04 </wgt>
<wgt id='1266'> +6.9795236e+04 </wgt>
<wgt id='1267'> +6.9975794e+04 </wgt>
<wgt id='1268'> +6.9786342e+04 </wgt>
<wgt id='1269'> +6.9843635e+04 </wgt>
<wgt id='1270'> +7.0203183e+04 </wgt>
<wgt id='1271'> +7.0062313e+04 </wgt>
<wgt id='1272'> +6.9913254e+04 </wgt>
<wgt id='1273'> +7.0178870e+04 </wgt>
<wgt id='1274'> +6.9997255e+04 </wgt>
<wgt id='1275'> +7.0130626e+04 </wgt>
<wgt id='1276'> +6.9894329e+04 </wgt>
<wgt id='1277'> +7.0246528e+04 </wgt>
<wgt id='1278'> +7.0157491e+04 </wgt>
<wgt id='1279'> +7.0058247e+04 </wgt>
<wgt id='1280'> +7.0019674e+04 </wgt>
<wgt id='1281'> +6.9926129e+04 </wgt>
<wgt id='1282'> +6.9993710e+04 </wgt>
<wgt id='1283'> +6.9974412e+04 </wgt>
<wgt id='1284'> +7.0001904e+04 </wgt>
<wgt id='1285'> +7.0003123e+04 </wgt>
<wgt id='1286'> +6.9977557e+04 </wgt>
<wgt id='1287'> +6.9874570e+04 </wgt>
<wgt id='1288'> +7.0153671e+04 </wgt>
<wgt id='1289'> +6.9805262e+04 </wgt>
<wgt id='1290'> +7.0029142e+04 </wgt>
<wgt id='1291'> +7.0061910e+04 </wgt>
<wgt id='1292'> +7.0007750e+04 </wgt>
<wgt id='1293'> +6.9980103e+04 </wgt>
<wgt id='1294'> +6.9909201e+04 </wgt>
<wgt id='1295'> +7.0117943e+04 </wgt>
<wgt id='1296'> +6.9992006e+04 </wgt>
<wgt id='1297'> +7.0103820e+04 </wgt>
<wgt id='1298'> +7.0002656e+04 </wgt>
<wgt id='1299'> +6.9927844e+04 </wgt>
<wgt id='1300'> +6.9970846e+04 </wgt>
<wgt id='1301'> +6.9892895e+04 </wgt>
<wgt id='1302'> +7.0164646e+04 </wgt>
<wgt id='1303'> +7.0104078e+04 </wgt>
<wgt id='1304'> +6.9994211e+04 </wgt>
<wgt id='1305'> +7.0050702e+04 </wgt>
<wgt id='1306'> +7.0059073e+04 </wgt>
<wgt id='1307'> +6.9965553e+04 </wgt>
<wgt id='1308'> +6.9950310e+04 </wgt>
<wgt id='1309'> +7.0088013e+04 </wgt>
<wgt id='1310'> +7.0009964e+04 </wgt>
<wgt id='1311'> +7.0108845e+04 </wgt>
<wgt id='1312'> +7.0008729e+04 </wgt>
<wgt id='1313'> +6.9991157e+04 </wgt>
<wgt id='1314'> +7.0053095e+04 </wgt>
<wgt id='1315'> +7.0040824e+04 </wgt>
<wgt id='1316'> +6.9941032e+04 </wgt>
<wgt id='1317'> +7.0020910e+04 </wgt>
<wgt id='1318'> +7.0012172e+04 </wgt>
<wgt id='1319'> +7.0001171e+04 </wgt>
<wgt id='1320'> +7.0017847e+04 </wgt>
<wgt id='1321'> +7.0004285e+04 </wgt>
<wgt id='1322'> +6.9982035e+04 </wgt>
<wgt id='1323'> +6.9966576e+04 </wgt>
<wgt id='1324'> +6.7230093e+04 </wgt>
<wgt id='1325'> +7.3108127e+04 </wgt>
<wgt id='1326'> +7.1796226e+04 </wgt>
<wgt id='1327'> +7.0111605e+04 </wgt>
<wgt id='1328'> +7.6917968e+04 </wgt>
<wgt id='1329'> +7.7428765e+04 </wgt>
<wgt id='1330'> +7.5524370e+04 </wgt>
<wgt id='1331'> +7.7483350e+04 </wgt>
<wgt id='1332'> +7.6478083e+04 </wgt>
<wgt id='1333'> +7.3716187e+04 </wgt>
<wgt id='1334'> +7.9066119e+04 </wgt>
<wgt id='1335'> +7.9144267e+04 </wgt>
<wgt id='1336'> +7.4866987e+04 </wgt>
<wgt id='1337'> +7.5514457e+04 </wgt>
<wgt id='1338'> +7.9020717e+04 </wgt>
<wgt id='1339'> +7.9968515e+04 </wgt>
<wgt id='1340'> +7.9710384e+04 </wgt>
<wgt id='1341'> +7.9702532e+04 </wgt>
<wgt id='1342'> +7.3447338e+04 </wgt>
<wgt id='1343'> +7.7956368e+04 </wgt>
<wgt id='1344'> +7.3885160e+04 </wgt>
<wgt id='1345'> +7.8755815e+04 </wgt>
<wgt id='1346'> +7.9260062e+04 </wgt>
<wgt id='1347'> +7.6307634e+04 </wgt>
<wgt id='1348'> +7.6819959e+04 </wgt>
<wgt id='1349'> +7.8402196e+04 </wgt>
<wgt id='1350'> +7.6869079e+04 </wgt>
<wgt id='1351'> +7.7766869e+04 </wgt>
<wgt id='1352'> +7.3808419e+04 </wgt>
<wgt id='1353'> +7.2389755e+04 </wgt>
<wgt id='1354'> +7.7686309e+04 </wgt>
<wgt id='1355'> +7.7912599e+04 </wgt>
<wgt id='1356'> +7.6769877e+04 </wgt>
<wgt id='1357'> +7.6138811e+04 </wgt>
<wgt id='1358'> +7.5322339e+04 </wgt>
<wgt id='1359'> +7.9569147e+04 </wgt>
<wgt id='1360'> +7.5611792e+04 </wgt>
<wgt id='1361'> +7.2439061e+04 </wgt>
<wgt id='1362'> +7.6477651e+04 </wgt>
<wgt id='1363'> +7.8335652e+04 </wgt>
<wgt id='1364'> +7.8064255e+04 </wgt>
<wgt id='1365'> +7.4800010e+04 </wgt>
<wgt id='1366'> +7.6478561e+04 </wgt>
<wgt id='1367'> +7.4085714e+04 </wgt>
<wgt id='1368'> +7.7765632e+04 </wgt>
<wgt id='1369'> +7.4052909e+04 </wgt>
<wgt id='1370'> +7.8562308e+04 </wgt>
<wgt id='1371'> +7.5558962e+04 </wgt>
<wgt id='1372'> +7.4059971e+04 </wgt>
<wgt id='1373'> +7.8090251e+04 </wgt>
<wgt id='1374'> +7.7178354e+04 </wgt>
<wgt id='1375'> +7.6052202e+04 </wgt>
<wgt id='1376'> +7.7483335e+04 </wgt>
<wgt id='1377'> +7.7709394e+04 </wgt>
<wgt id='1378'> +8.0759065e+04 </wgt>
<wgt id='1379'> +7.7631380e+04 </wgt>
<wgt id='1380'> +7.3009129e+04 </wgt>
<wgt id='1381'> +7.4901561e+04 </wgt>
<wgt id='1382'> +8.1243273e+04 </wgt>
<wgt id='1383'> +7.9471308e+04 </wgt>
<wgt id='1384'> +7.6669676e+04 </wgt>
<wgt id='1385'> +8.3495283e+04 </wgt>
<wgt id='1386'> +7.4237559e+04 </wgt>
<wgt id='1387'> +7.7647803e+04 </wgt>
<wgt id='1388'> +7.5723076e+04 </wgt>
<wgt id='1389'> +7.6189928e+04 </wgt>
<wgt id='1390'> +8.0881461e+04 </wgt>
<wgt id='1391'> +7.3980004e+04 </wgt>
<wgt id='1392'> +8.0241312e+04 </wgt>
<wgt id='1393'> +8.3442082e+04 </wgt>
<wgt id='1394'> +7.4800010e+04 </wgt>
<wgt id='1395'> +7.7889084e+04 </wgt>
<wgt id='1396'> +7.5710476e+04 </wgt>
<wgt id='1397'> +7.6256294e+04 </wgt>
<wgt id='1398'> +7.6085349e+04 </wgt>
<wgt id='1399'> +7.7770306e+04 </wgt>
<wgt id='1400'> +7.5548030e+04 </wgt>
<wgt id='1401'> +7.8684590e+04 </wgt>
<wgt id='1402'> +7.4381610e+04 </wgt>
<wgt id='1403'> +7.5112015e+04 </wgt>
<wgt id='1404'> +7.8398364e+04 </wgt>
<wgt id='1405'> +7.3761051e+04 </wgt>
<wgt id='1406'> +7.5329451e+04 </wgt>
<wgt id='1407'> +7.4785132e+04 </wgt>
<wgt id='1408'> +7.5805479e+04 </wgt>
<wgt id='1409'> +7.6196287e+04 </wgt>
<wgt id='1410'> +7.2963303e+04 </wgt>
<wgt id='1411'> +7.6883162e+04 </wgt>
<wgt id='1412'> +7.5894336e+04 </wgt>
<wgt id='1413'> +7.7370526e+04 </wgt>
<wgt id='1414'> +8.1408865e+04 </wgt>
<wgt id='1415'> +7.9269482e+04 </wgt>
<wgt id='1416'> +7.8242142e+04 </wgt>
<wgt id='1417'> +7.6777931e+04 </wgt>
<wgt id='1418'> +7.4889476e+04 </wgt>
<wgt id='1419'> +8.0534467e+04 </wgt>
<wgt id='1420'> +8.1973032e+04 </wgt>
<wgt id='1421'> +7.4546353e+04 </wgt>
<wgt id='1422'> +7.8129246e+04 </wgt>
<wgt id='1423'> +7.6408805e+04 </wgt>
<wgt id='1424'> +7.8706797e+04 </wgt>
<wgt id='1425'> +7.5612324e+04 </wgt>
<wgt id='1426'> +7.7785224e+04 </wgt>
<wgt id='1427'> +7.5987211e+04 </wgt>
<wgt id='1428'> +7.2297829e+04 </wgt>
<wgt id='1429'> +7.4978468e+04 </wgt>
<wgt id='1430'> +7.9574224e+04 </wgt>
<wgt id='1431'> +7.7175482e+04 </wgt>
<wgt id='1432'> +7.7099769e+04 </wgt>
<wgt id='1433'> +7.7889855e+04 </wgt>
<wgt id='1434'> +7.7075471e+04 </wgt>
<wgt id='1435'> +7.7401244e+04 </wgt>
<wgt id='1436'> +7.8773020e+04 </wgt>
<wgt id='1437'> +7.6617259e+04 </wgt>
<wgt id='1438'> +7.7022831e+04 </wgt>
<wgt id='1439'> +7.7561590e+04 </wgt>
<wgt id='1440'> +7.7461762e+04 </wgt>
<wgt id='1441'> +7.7280183e+04 </wgt>
<wgt id='1442'> +7.8040928e+04 </wgt>
<wgt id='1443'> +7.7305261e+04 </wgt>
<wgt id='1444'> +7.7778043e+04 </wgt>
<wgt id='1445'> +7.6840021e+04 </wgt>
<wgt id='1446'> +7.7803853e+04 </wgt>
<wgt id='1447'> +7.6955108e+04 </wgt>
<wgt id='1448'> +7.7129646e+04 </wgt>
<wgt id='1449'> +7.7216778e+04 </wgt>
<wgt id='1450'> +7.7192049e+04 </wgt>
<wgt id='1451'> +7.7314748e+04 </wgt>
<wgt id='1452'> +7.7041187e+04 </wgt>
<wgt id='1453'> +7.7251254e+04 </wgt>
<wgt id='1454'> +7.7027115e+04 </wgt>
<wgt id='1455'> +7.7259839e+04 </wgt>
<wgt id='1456'> +7.7176973e+04 </wgt>
<wgt id='1457'> +7.7244070e+04 </wgt>
<wgt id='1458'> +7.7034649e+04 </wgt>
<wgt id='1459'> +7.7158578e+04 </wgt>
<wgt id='1460'> +7.7008647e+04 </wgt>
<wgt id='1461'> +7.7229887e+04 </wgt>
<wgt id='1462'> +7.7168166e+04 </wgt>
<wgt id='1463'> +7.7257038e+04 </wgt>
<wgt id='1464'> +7.7137273e+04 </wgt>
<wgt id='1465'> +7.7144963e+04 </wgt>
<wgt id='1466'> +7.7054641e+04 </wgt>
<wgt id='1467'> +7.7154509e+04 </wgt>
<wgt id='1468'> +7.7232184e+04 </wgt>
<wgt id='1469'> +7.7162269e+04 </wgt>
<wgt id='1470'> +7.7236120e+04 </wgt>
<wgt id='1471'> +7.7185843e+04 </wgt>
<wgt id='1472'> +7.7259563e+04 </wgt>
<wgt id='1473'> +7.7202849e+04 </wgt>
<wgt id='1474'> +7.7190570e+04 </wgt>
<wgt id='1475'> +7.7241899e+04 </wgt>
<wgt id='1476'> +7.7086575e+04 </wgt>
<wgt id='1477'> +7.7193984e+04 </wgt>
<wgt id='1478'> +7.7227531e+04 </wgt>
<wgt id='1479'> +7.7153465e+04 </wgt>
<wgt id='1480'> +7.7189605e+04 </wgt>
<wgt id='1481'> +7.7175936e+04 </wgt>
<wgt id='1482'> +7.4978468e+04 </wgt>
<wgt id='1483'> +7.9574224e+04 </wgt>
<wgt id='1484'> +7.7510601e+04 </wgt>
<wgt id='1485'> +7.6268665e+04 </wgt>
<wgt id='1486'> +7.6985140e+04 </wgt>
<wgt id='1487'> +7.6985803e+04 </wgt>
<wgt id='1488'> +7.8712275e+04 </wgt>
<wgt id='1489'> +7.8170573e+04 </wgt>
<wgt id='1490'> +7.6606070e+04 </wgt>
<wgt id='1491'> +8.1932692e+04 </wgt>
<wgt id='1492'> +7.8040118e+04 </wgt>
<wgt id='1493'> +7.5750538e+04 </wgt>
<wgt id='1494'> +7.7987796e+04 </wgt>
<wgt id='1495'> +8.2087377e+04 </wgt>
<wgt id='1496'> +7.9984033e+04 </wgt>
<wgt id='1497'> +8.1346915e+04 </wgt>
<wgt id='1498'> +7.4716673e+04 </wgt>
<wgt id='1499'> +7.6327275e+04 </wgt>
<wgt id='1500'> +7.6007138e+04 </wgt>
<wgt id='1501'> +8.0362846e+04 </wgt>
<wgt id='1502'> +7.7014348e+04 </wgt>
<wgt id='1503'> +7.9593923e+04 </wgt>
<wgt id='1504'> +7.7738801e+04 </wgt>
<wgt id='1505'> +7.6252167e+04 </wgt>
<wgt id='1506'> +7.9261685e+04 </wgt>
<wgt id='1507'> +7.7686189e+04 </wgt>
<wgt id='1508'> +8.2033467e+04 </wgt>
<wgt id='1509'> +7.5212787e+04 </wgt>
<wgt id='1510'> +7.8498691e+04 </wgt>
<wgt id='1511'> +7.5887964e+04 </wgt>
<wgt id='1512'> +7.5486590e+04 </wgt>
<wgt id='1513'> +8.0980987e+04 </wgt>
<wgt id='1514'> +7.9836178e+04 </wgt>
<wgt id='1515'> +7.7796460e+04 </wgt>
<wgt id='1516'> +7.9870351e+04 </wgt>
<wgt id='1517'> +7.4398806e+04 </wgt>
<wgt id='1518'> +7.5740638e+04 </wgt>
<wgt id='1519'> +7.5023807e+04 </wgt>
<wgt id='1520'> +7.5617538e+04 </wgt>
<wgt id='1521'> +7.9095778e+04 </wgt>
<wgt id='1522'> +7.6803357e+04 </wgt>
<wgt id='1523'> +7.7902715e+04 </wgt>
<wgt id='1524'> +7.6438177e+04 </wgt>
<wgt id='1525'> +7.4640728e+04 </wgt>
<wgt id='1526'> +7.5698355e+04 </wgt>
<wgt id='1527'> +7.6295923e+04 </wgt>
<wgt id='1528'> +7.6756775e+04 </wgt>
<wgt id='1529'> +7.7887434e+04 </wgt>
<wgt id='1530'> +7.6852329e+04 </wgt>
<wgt id='1531'> +7.8478651e+04 </wgt>
<wgt id='1532'> +7.6801815e+04 </wgt>
<wgt id='1533'> +7.4837610e+04 </wgt>
<wgt id='1534'> +7.8061847e+04 </wgt>
<wgt id='1535'> +7.9576505e+04 </wgt>
<wgt id='1536'> +7.5901440e+04 </wgt>
<wgt id='1537'> +7.8566893e+04 </wgt>
<wgt id='1538'> +7.8565167e+04 </wgt>
<wgt id='1539'> +7.6692630e+04 </wgt>
<wgt id='1540'> +7.8542392e+04 </wgt>
<wgt id='1541'> +7.4970927e+04 </wgt>
<wgt id='1542'> +7.8989236e+04 </wgt>
<wgt id='1543'> +7.6789576e+04 </wgt>
<wgt id='1544'> +7.5762598e+04 </wgt>
<wgt id='1545'> +7.5515395e+04 </wgt>
<wgt id='1546'> +7.6128666e+04 </wgt>
<wgt id='1547'> +7.7392686e+04 </wgt>
<wgt id='1548'> +7.6978996e+04 </wgt>
<wgt id='1549'> +7.9018267e+04 </wgt>
<wgt id='1550'> +7.7230648e+04 </wgt>
<wgt id='1551'> +7.7225382e+04 </wgt>
<wgt id='1552'> +7.5220775e+04 </wgt>
<wgt id='1553'> +7.7712128e+04 </wgt>
<wgt id='1554'> +7.7419687e+04 </wgt>
<wgt id='1555'> +7.9951908e+04 </wgt>
<wgt id='1556'> +7.8977284e+04 </wgt>
<wgt id='1557'> +7.8214432e+04 </wgt>
<wgt id='1558'> +7.4716882e+04 </wgt>
<wgt id='1559'> +7.6188787e+04 </wgt>
<wgt id='1560'> +7.3892293e+04 </wgt>
<wgt id='1561'> +7.7780070e+04 </wgt>
<wgt id='1562'> +7.7323496e+04 </wgt>
<wgt id='1563'> +7.9671235e+04 </wgt>
<wgt id='1564'> +7.6915364e+04 </wgt>
<wgt id='1565'> +7.4691669e+04 </wgt>
<wgt id='1566'> +7.6331870e+04 </wgt>
<wgt id='1567'> +7.9214148e+04 </wgt>
<wgt id='1568'> +7.7727243e+04 </wgt>
<wgt id='1569'> +7.8348935e+04 </wgt>
<wgt id='1570'> +7.5472023e+04 </wgt>
<wgt id='1571'> +7.7666908e+04 </wgt>
<wgt id='1572'> +7.9524027e+04 </wgt>
<wgt id='1573'> +7.8348370e+04 </wgt>
<wgt id='1574'> +7.8980473e+04 </wgt>
<wgt id='1575'> +7.8266689e+04 </wgt>
<wgt id='1576'> +7.6365093e+04 </wgt>
<wgt id='1577'> +7.9355226e+04 </wgt>
<wgt id='1578'> +7.6117703e+04 </wgt>
<wgt id='1579'> +7.9147201e+04 </wgt>
<wgt id='1580'> +7.8310774e+04 </wgt>
<wgt id='1581'> +7.5136995e+04 </wgt>
<wgt id='1582'> +7.7588728e+04 </wgt>
<wgt id='1583'> +7.7294029e+04 </wgt>
<wgt id='1584'> +8.0465018e+04 </wgt>
<wgt id='1585'> +7.4517731e+04 </wgt>
<wgt id='1586'> +6.3922029e+04 </wgt>
<wgt id='1587'> +7.2824437e+04 </wgt>
<wgt id='1588'> +7.4978468e+04 </wgt>
<wgt id='1589'> +7.6081578e+04 </wgt>
<wgt id='1590'> +7.8929069e+04 </wgt>
<wgt id='1591'> +7.9574224e+04 </wgt>
<wgt id='1592'> +8.2015103e+04 </wgt>
<wgt id='1593'> +7.1818828e+04 </wgt>
<wgt id='1594'> +7.0918462e+04 </wgt>
<wgt id='1595'> +7.2132061e+04 </wgt>
<wgt id='1596'> +7.0641686e+04 </wgt>
<wgt id='1597'> +6.9743076e+04 </wgt>
<wgt id='1598'> +7.5479323e+04 </wgt>
<wgt id='1599'> +6.9212519e+04 </wgt>
<wgt id='1600'> +7.7666138e+04 </wgt>
<wgt id='1601'> +6.7100928e+04 </wgt>
<wgt id='1602'> +7.5642538e+04 </wgt>
<wgt id='1603'> +6.8978715e+04 </wgt>
<wgt id='1604'> +7.1807651e+04 </wgt>
<wgt id='1605'> +7.1731706e+04 </wgt>
<wgt id='1606'> +6.8430451e+04 </wgt>
<wgt id='1607'> +7.3712123e+04 </wgt>
<wgt id='1608'> +6.8956069e+04 </wgt>
<wgt id='1609'> +7.0519781e+04 </wgt>
<wgt id='1610'> +7.1286807e+04 </wgt>
<wgt id='1611'> +7.2385078e+04 </wgt>
<wgt id='1612'> +7.0436568e+04 </wgt>
<wgt id='1613'> +7.3736236e+04 </wgt>
<wgt id='1614'> +7.0609809e+04 </wgt>
<wgt id='1615'> +7.4018574e+04 </wgt>
<wgt id='1616'> +7.2418032e+04 </wgt>
<wgt id='1617'> +7.0333054e+04 </wgt>
<wgt id='1618'> +7.1477789e+04 </wgt>
<wgt id='1619'> +7.2738856e+04 </wgt>
<wgt id='1620'> +7.1299760e+04 </wgt>
<wgt id='1621'> +7.1117131e+04 </wgt>
<wgt id='1622'> +6.9927377e+04 </wgt>
<wgt id='1623'> +7.2907091e+04 </wgt>
<wgt id='1624'> +7.2709218e+04 </wgt>
<wgt id='1625'> +6.7934273e+04 </wgt>
<wgt id='1626'> +7.1092425e+04 </wgt>
<wgt id='1627'> +7.2289518e+04 </wgt>
<wgt id='1628'> +7.0883119e+04 </wgt>
<wgt id='1629'> +7.0063967e+04 </wgt>
<wgt id='1630'> +6.6984597e+04 </wgt>
<wgt id='1631'> +7.7491731e+04 </wgt>
<wgt id='1632'> +6.8087270e+04 </wgt>
<wgt id='1633'> +7.6128118e+04 </wgt>
<wgt id='1634'> +6.9502131e+04 </wgt>
<wgt id='1635'> +7.4228175e+04 </wgt>
<wgt id='1636'> +7.1970823e+04 </wgt>
<wgt id='1637'> +7.1109785e+04 </wgt>
<wgt id='1638'> +7.2868313e+04 </wgt>
<wgt id='1639'> +6.9224175e+04 </wgt>
<wgt id='1640'> +6.9448891e+04 </wgt>
<wgt id='1641'> +7.2993757e+04 </wgt>
<wgt id='1642'> +7.2456729e+04 </wgt>
<wgt id='1643'> +7.0554182e+04 </wgt>
<wgt id='1644'> +6.7654603e+04 </wgt>
<wgt id='1645'> +7.7639204e+04 </wgt>
<wgt id='1646'> +6.8761950e+04 </wgt>
<wgt id='1647'> +7.2510226e+04 </wgt>
<wgt id='1648'> +6.9924515e+04 </wgt>
<wgt id='1649'> +7.2752132e+04 </wgt>
<wgt id='1650'> +7.1567411e+04 </wgt>
<wgt id='1651'> +7.2132940e+04 </wgt>
<wgt id='1652'> +7.0283423e+04 </wgt>
<wgt id='1653'> +7.1109430e+04 </wgt>
<wgt id='1654'> +7.2419077e+04 </wgt>
<wgt id='1655'> +7.2921631e+04 </wgt>
<wgt id='1656'> +7.9550629e+04 </wgt>
<wgt id='1657'> +7.9432163e+04 </wgt>
<wgt id='1658'> +7.8802675e+04 </wgt>
<wgt id='1659'> +7.9228222e+04 </wgt>
<wgt id='1660'> +7.9730614e+04 </wgt>
<wgt id='1661'> +7.7445088e+04 </wgt>
<wgt id='1662'> +8.0565155e+04 </wgt>
<wgt id='1663'> +7.9070706e+04 </wgt>
<wgt id='1664'> +7.9094142e+04 </wgt>
<wgt id='1665'> +7.8874331e+04 </wgt>
<wgt id='1666'> +7.9584111e+04 </wgt>
<wgt id='1667'> +7.8405527e+04 </wgt>
<wgt id='1668'> +8.0326564e+04 </wgt>
<wgt id='1669'> +7.7194479e+04 </wgt>
<wgt id='1670'> +8.2693687e+04 </wgt>
<wgt id='1671'> +7.9342411e+04 </wgt>
<wgt id='1672'> +7.9399851e+04 </wgt>
<wgt id='1673'> +8.1309453e+04 </wgt>
<wgt id='1674'> +7.8352118e+04 </wgt>
<wgt id='1675'> +7.9445634e+04 </wgt>
<wgt id='1676'> +7.7906677e+04 </wgt>
<wgt id='1677'> +8.0269406e+04 </wgt>
<wgt id='1678'> +7.8175035e+04 </wgt>
<wgt id='1679'> +8.2165797e+04 </wgt>
<wgt id='1680'> +7.7561309e+04 </wgt>
<wgt id='1681'> +7.9397546e+04 </wgt>
<wgt id='1682'> +7.8876735e+04 </wgt>
<wgt id='1683'> +7.9529269e+04 </wgt>
<wgt id='1684'> +7.8826409e+04 </wgt>
<wgt id='1685'> +8.0897195e+04 </wgt>
<wgt id='1686'> +7.7066938e+04 </wgt>
<wgt id='1687'> +7.6088531e+04 </wgt>
<wgt id='1688'> +8.4695731e+04 </wgt>
<wgt id='1689'> +7.6930985e+04 </wgt>
<wgt id='1690'> +8.2622120e+04 </wgt>
<wgt id='1691'> +7.9005703e+04 </wgt>
<wgt id='1692'> +7.9569625e+04 </wgt>
<wgt id='1693'> +7.4343852e+04 </wgt>
<wgt id='1694'> +8.5510733e+04 </wgt>
<wgt id='1695'> +7.9209448e+04 </wgt>
<wgt id='1696'> +7.9660395e+04 </wgt>
<wgt id='1697'> +7.8059764e+04 </wgt>
<wgt id='1698'> +8.1323113e+04 </wgt>
<wgt id='1699'> +7.9111152e+04 </wgt>
<wgt id='1700'> +7.7518848e+04 </wgt>
<wgt id='1701'> +8.1891039e+04 </wgt>
<wgt id='1702'> +7.7643618e+04 </wgt>
<wgt id='1703'> +8.0168696e+04 </wgt>
<wgt id='1704'> +7.9329432e+04 </wgt>
<wgt id='1705'> +7.9435237e+04 </wgt>
<wgt id='1706'> +7.8577515e+04 </wgt>
<wgt id='1707'> +7.8750061e+04 </wgt>
<wgt id='1708'> +7.9717591e+04 </wgt>
<wgt id='1709'> +7.7208570e+04 </wgt>
<wgt id='1710'> +7.9949142e+04 </wgt>
<wgt id='1711'> +7.8098505e+04 </wgt>
<wgt id='1712'> +7.9951183e+04 </wgt>
<wgt id='1713'> +7.8409395e+04 </wgt>
<wgt id='1714'> +7.9919918e+04 </wgt>
<wgt id='1715'> +7.9980772e+04 </wgt>
<wgt id='1716'> +7.2794710e+04 </wgt>
<wgt id='1717'> +8.0212872e+04 </wgt>
<wgt id='1718'> +8.0262901e+04 </wgt>
<wgt id='1719'> +8.0148736e+04 </wgt>
<wgt id='1720'> +8.0989123e+04 </wgt>
<wgt id='1721'> +7.9503929e+04 </wgt>
<wgt id='1722'> +8.0900015e+04 </wgt>
<wgt id='1723'> +7.9086848e+04 </wgt>
<wgt id='1724'> +7.9483901e+04 </wgt>
<wgt id='1725'> +8.0805168e+04 </wgt>
<wgt id='1726'> +7.9435266e+04 </wgt>
<wgt id='1727'> +8.1014179e+04 </wgt>
<wgt id='1728'> +7.9969615e+04 </wgt>
<wgt id='1729'> +8.0447861e+04 </wgt>
<wgt id='1730'> +8.0181182e+04 </wgt>
<wgt id='1731'> +8.0235811e+04 </wgt>
<wgt id='1732'> +8.0075306e+04 </wgt>
<wgt id='1733'> +8.0075306e+04 </wgt>
<wgt id='1734'> +8.0294641e+04 </wgt>
<wgt id='1735'> +8.0153969e+04 </wgt>
<wgt id='1736'> +8.0648179e+04 </wgt>
<wgt id='1737'> +7.9618929e+04 </wgt>
<wgt id='1738'> +8.0391807e+04 </wgt>
<wgt id='1739'> +7.9907291e+04 </wgt>
<wgt id='1740'> +8.0087081e+04 </wgt>
<wgt id='1741'> +8.0516076e+04 </wgt>
<wgt id='1742'> +7.9948529e+04 </wgt>
<wgt id='1743'> +8.0521863e+04 </wgt>
<wgt id='1744'> +8.0013230e+04 </wgt>
<wgt id='1745'> +8.0751145e+04 </wgt>
<wgt id='1746'> +7.9770334e+04 </wgt>
<wgt id='1747'> +8.0459691e+04 </wgt>
<wgt id='1748'> +8.0400832e+04 </wgt>
<wgt id='1749'> +7.9570123e+04 </wgt>
<wgt id='1750'> +8.0101552e+04 </wgt>
<wgt id='1751'> +8.0333263e+04 </wgt>
<wgt id='1752'> +8.0092766e+04 </wgt>
<wgt id='1753'> +8.0381175e+04 </wgt>
<wgt id='1754'> +8.0342820e+04 </wgt>
<wgt id='1755'> +8.0143473e+04 </wgt>
<wgt id='1756'> +8.0386377e+04 </wgt>
<wgt id='1757'> +7.9814899e+04 </wgt>
<wgt id='1758'> +8.0557865e+04 </wgt>
<wgt id='1759'> +7.9887535e+04 </wgt>
<wgt id='1760'> +7.9842570e+04 </wgt>
<wgt id='1761'> +8.0632506e+04 </wgt>
<wgt id='1762'> +8.0241607e+04 </wgt>
<wgt id='1763'> +7.9544987e+04 </wgt>
<wgt id='1764'> +8.0252558e+04 </wgt>
<wgt id='1765'> +8.0031718e+04 </wgt>
<wgt id='1766'> +8.0068148e+04 </wgt>
<wgt id='1767'> +8.0381403e+04 </wgt>
<wgt id='1768'> +8.0220458e+04 </wgt>
<wgt id='1769'> +8.0140945e+04 </wgt>
<wgt id='1770'> +8.0005676e+04 </wgt>
<wgt id='1771'> +7.9979935e+04 </wgt>
<wgt id='1772'> +8.0439225e+04 </wgt>
<wgt id='1773'> +8.0089966e+04 </wgt>
<wgt id='1774'> +8.1413725e+04 </wgt>
<wgt id='1775'> +7.9410479e+04 </wgt>
<wgt id='1776'> +7.9916823e+04 </wgt>
<wgt id='1777'> +8.0305365e+04 </wgt>
<wgt id='1778'> +8.0395704e+04 </wgt>
<wgt id='1779'> +7.9939956e+04 </wgt>
<wgt id='1780'> +7.8262514e+04 </wgt>
<wgt id='1781'> +7.9764283e+04 </wgt>
<wgt id='1782'> +8.0212872e+04 </wgt>
<wgt id='1783'> +8.0197507e+04 </wgt>
<wgt id='1784'> +7.6794309e+04 </wgt>
<wgt id='1785'> +7.7317970e+04 </wgt>
<wgt id='1786'> +8.2297077e+04 </wgt>
<wgt id='1787'> +7.7020152e+04 </wgt>
<wgt id='1788'> +7.6488354e+04 </wgt>
<wgt id='1789'> +7.6585680e+04 </wgt>
<wgt id='1790'> +7.6487393e+04 </wgt>
<wgt id='1791'> +7.6351455e+04 </wgt>
<wgt id='1792'> +7.7297998e+04 </wgt>
<wgt id='1793'> +7.6758084e+04 </wgt>
<wgt id='1794'> +7.6571421e+04 </wgt>
<wgt id='1795'> +7.6568975e+04 </wgt>
<wgt id='1796'> +7.6972517e+04 </wgt>
<wgt id='1797'> +7.5380467e+04 </wgt>
<wgt id='1798'> +7.6549411e+04 </wgt>
<wgt id='1799'> +7.6463647e+04 </wgt>
<wgt id='1800'> +7.5832955e+04 </wgt>
<wgt id='1801'> +7.5536287e+04 </wgt>
<wgt id='1802'> +7.6752336e+04 </wgt>
<wgt id='1803'> +7.6428878e+04 </wgt>
<wgt id='1804'> +7.6765843e+04 </wgt>
<wgt id='1805'> +7.8047154e+04 </wgt>
<wgt id='1806'> +7.6190830e+04 </wgt>
<wgt id='1807'> +7.6910792e+04 </wgt>
<wgt id='1808'> +7.6654274e+04 </wgt>
<wgt id='1809'> +7.6665550e+04 </wgt>
<wgt id='1810'> +7.6970628e+04 </wgt>
<wgt id='1811'> +7.6933928e+04 </wgt>
<wgt id='1812'> +7.7750916e+04 </wgt>
<wgt id='1813'> +7.7965536e+04 </wgt>
<wgt id='1814'> +7.6580736e+04 </wgt>
<wgt id='1815'> +7.6727093e+04 </wgt>
<wgt id='1816'> +7.6856561e+04 </wgt>
<wgt id='1817'> +7.6703257e+04 </wgt>
<wgt id='1818'> +7.7081460e+04 </wgt>
<wgt id='1819'> +7.6911073e+04 </wgt>
<wgt id='1820'> +7.5815265e+04 </wgt>
<wgt id='1821'> +7.6780347e+04 </wgt>
<wgt id='1822'> +7.6597264e+04 </wgt>
<wgt id='1823'> +7.4134481e+04 </wgt>
<wgt id='1824'> +7.6772007e+04 </wgt>
<wgt id='1825'> +7.5604450e+04 </wgt>
<wgt id='1826'> +7.8042004e+04 </wgt>
<wgt id='1827'> +7.6409786e+04 </wgt>
<wgt id='1828'> +7.6439925e+04 </wgt>
<wgt id='1829'> +7.6375477e+04 </wgt>
<wgt id='1830'> +7.6456682e+04 </wgt>
<wgt id='1831'> +7.6358600e+04 </wgt>
<wgt id='1832'> +7.6586832e+04 </wgt>
<wgt id='1833'> +7.6228890e+04 </wgt>
<wgt id='1834'> +7.6502518e+04 </wgt>
<wgt id='1835'> +7.6311366e+04 </wgt>
<wgt id='1836'> +7.6604962e+04 </wgt>
<wgt id='1837'> +7.6211407e+04 </wgt>
<wgt id='1838'> +7.6548940e+04 </wgt>
<wgt id='1839'> +7.6266819e+04 </wgt>
<wgt id='1840'> +7.6170605e+04 </wgt>
<wgt id='1841'> +7.6645741e+04 </wgt>
<wgt id='1842'> +7.6271720e+04 </wgt>
<wgt id='1843'> +7.6518888e+04 </wgt>
<wgt id='1844'> +7.6436938e+04 </wgt>
<wgt id='1845'> +7.6357327e+04 </wgt>
<wgt id='1846'> +7.6232076e+04 </wgt>
<wgt id='1847'> +7.6575535e+04 </wgt>
<wgt id='1848'> +7.5793876e+04 </wgt>
<wgt id='1849'> +7.6887093e+04 </wgt>
<wgt id='1850'> +7.6806885e+04 </wgt>
<wgt id='1851'> +7.5992918e+04 </wgt>
<wgt id='1852'> +7.6673778e+04 </wgt>
<wgt id='1853'> +7.5932382e+04 </wgt>
<wgt id='1854'> +7.6775731e+04 </wgt>
<wgt id='1855'> +7.6152222e+04 </wgt>
<wgt id='1856'> +7.7844196e+04 </wgt>
<wgt id='1857'> +7.7817739e+04 </wgt>
<wgt id='1858'> +7.7851218e+04 </wgt>
<wgt id='1859'> +7.7782554e+04 </wgt>
<wgt id='1860'> +7.7847950e+04 </wgt>
<wgt id='1861'> +7.8086101e+04 </wgt>
<wgt id='1862'> +7.8204657e+04 </wgt>
<wgt id='1863'> +7.7231153e+04 </wgt>
<wgt id='1864'> +7.8051926e+04 </wgt>
<wgt id='1865'> +7.7992437e+04 </wgt>
<wgt id='1866'> +7.7835485e+04 </wgt>
<wgt id='1867'> +7.7861252e+04 </wgt>
<wgt id='1868'> +7.8025314e+04 </wgt>
<wgt id='1869'> +7.7743092e+04 </wgt>
<wgt id='1870'> +7.7918984e+04 </wgt>
<wgt id='1871'> +7.7841692e+04 </wgt>
<wgt id='1872'> +7.7959613e+04 </wgt>
<wgt id='1873'> +7.7805729e+04 </wgt>
<wgt id='1874'> +7.7798635e+04 </wgt>
<wgt id='1875'> +7.7923569e+04 </wgt>
<wgt id='1876'> +7.7511970e+04 </wgt>
<wgt id='1877'> +7.8236215e+04 </wgt>
<wgt id='1878'> +7.7282457e+04 </wgt>
<wgt id='1879'> +7.8059695e+04 </wgt>
<wgt id='1880'> +7.8225316e+04 </wgt>
<wgt id='1881'> +7.8421109e+04 </wgt>
<wgt id='1882'> +7.7923997e+04 </wgt>
<wgt id='1883'> +7.7626622e+04 </wgt>
<wgt id='1884'> +7.7977726e+04 </wgt>
<wgt id='1885'> +7.7033752e+04 </wgt>
<wgt id='1886'> +2.4877226e+04 </wgt>
<wgt id='1887'> +4.0400625e+04 </wgt>
<wgt id='1888'> +4.9751239e+04 </wgt>
<wgt id='1889'> +6.2599530e+04 </wgt>
</rwgt>
</event>
<event npLO=" -1 " npNLO=" 0 ">
 5      1 +7.4519530e+04 2.84748080e+01 7.55820760e-03 1.20741390e-01
       -2 -1    0    0    0  501 +0.0000000000e+00 +0.0000000000e+00 +5.5496482185e+00 5.5496482185e+00 0.0000000000e+00 0.0000e+00 1.0000e+00
        1 -1    0    0  501    0 +0.0000000000e+00 +0.0000000000e+00 -2.7366907036e+02 2.7366907036e+02 0.0000000000e+00 0.0000e+00 -1.0000e+00
      -24  2    1    2    0    0 +0.0000000000e+00 +0.0000000000e+00 -2.6811942214e+02 2.7921871858e+02 7.7942724325e+01 0.0000e+00 0.0000e+00
       13  1    3    3    0    0 -1.0008278009e+01 -3.7514499740e+01 -1.4608264433e+02 1.5115436578e+02 0.0000000000e+00 0.0000e+00 -1.0000e+00
      -14  1    3    3    0    0 +1.0008278009e+01 +3.7514499740e+01 -1.2203677781e+02 1.2806435280e+02 0.0000000000e+00 0.0000e+00 1.0000e+00
#aMCatNLO 1  0  0  1  2 0.23878663E+02 0.00000000E+00 -9  5  0 0.00000000E+00 0.00000000E+00 0.00000000E+00 0.00000000E+00 0.00000000E+00
<rwgt>
<wgt id='1001'> +7.4519530e+04 </wgt>
<wgt id='1002'> +7.4073492e+04 </wgt>
<wgt id='1003'> +7.5075344e+04 </wgt>
<wgt id='1004'> +8.2186993e+04 </wgt>
<wgt id='1005'> +8.1764373e+04 </wgt>
<wgt id='1006'> +8.2713531e+04 </wgt>
<wgt id='1007'> +6.5927827e+04 </wgt>
<wgt id='1008'> +6.5482473e+04 </wgt>
<wgt id='1009'> +6.6482857e+04 </wgt>
<wgt id='1010'> +7.4519530e+04 </wgt>
<wgt id='1011'> +7.4690600e+04 </wgt>
<wgt id='1012'> +7.4297984e+04 </wgt>
<wgt id='1013'> +7.4367992e+04 </wgt>
<wgt id='1014'> +7.4668328e+04 </wgt>
<wgt id='1015'> +7.4531747e+04 </wgt>
<wgt id='1016'> +7.4404162e+04 </wgt>
<wgt id='1017'> +7.4539496e+04 </wgt>
<wgt id='1018'> +7.4134782e+04 </wgt>
<wgt id='1019'> +7.4784826e+04 </wgt>
<wgt id='1020'> +7.4330987e+04 </wgt>
<wgt id='1021'> +7.4613559e+04 </wgt>
<wgt id='1022'> +7.4546098e+04 </wgt>
<wgt id='1023'> +7.4639286e+04 </wgt>
<wgt id='1024'> +7.4662389e+04 </wgt>
<wgt id='1025'> +7.5050080e+04 </wgt>
<wgt id='1026'> +7.4298506e+04 </wgt>
<wgt id='1027'> +7.4564550e+04 </wgt>
<wgt id='1028'> +7.4245957e+04 </wgt>
<wgt id='1029'> +7.4666892e+04 </wgt>
<wgt id='1030'> +7.4476792e+04 </wgt>
<wgt id='1031'> +7.4549967e+04 </wgt>
<wgt id='1032'> +7.4832223e+04 </wgt>
<wgt id='1033'> +7.4370393e+04 </wgt>
<wgt id='1034'> +7.4545678e+04 </wgt>
<wgt id='1035'> +7.4335415e+04 </wgt>
<wgt id='1036'> +7.4261878e+04 </wgt>
<wgt id='1037'> +7.5076186e+04 </wgt>
<wgt id='1038'> +7.4739479e+04 </wgt>
<wgt id='1039'> +7.4801907e+04 </wgt>
<wgt id='1040'> +7.4515433e+04 </wgt>
<wgt id='1041'> +7.5138027e+04 </wgt>
<wgt id='1042'> +7.4473616e+04 </wgt>
<wgt id='1043'> +7.4707071e+04 </wgt>
<wgt id='1044'> +7.4649786e+04 </wgt>
<wgt id='1045'> +7.4549326e+04 </wgt>
<wgt id='1046'> +7.4421041e+04 </wgt>
<wgt id='1047'> +7.4544203e+04 </wgt>
<wgt id='1048'> +7.4573440e+04 </wgt>
<wgt id='1049'> +7.4820593e+04 </wgt>
<wgt id='1050'> +7.4551248e+04 </wgt>
<wgt id='1051'> +7.4806851e+04 </wgt>
<wgt id='1052'> +7.4565781e+04 </wgt>
<wgt id='1053'> +7.4336833e+04 </wgt>
<wgt id='1054'> +7.4203652e+04 </wgt>
<wgt id='1055'> +7.4487886e+04 </wgt>
<wgt id='1056'> +7.4690890e+04 </wgt>
<wgt id='1057'> +7.4410917e+04 </wgt>
<wgt id='1058'> +7.4588225e+04 </wgt>
<wgt id='1059'> +7.4433563e+04 </wgt>
<wgt id='1060'> +7.4419105e+04 </wgt>
<wgt id='1061'> +7.4369077e+04 </wgt>
<wgt id='1062'> +7.4581232e+04 </wgt>
<wgt id='1063'> +7.4564231e+04 </wgt>
<wgt id='1064'> +7.4619278e+04 </wgt>
<wgt id='1065'> +7.4512917e+04 </wgt>
<wgt id='1066'> +7.4532059e+04 </wgt>
<wgt id='1067'> +7.4651986e+04 </wgt>
<wgt id='1068'> +7.4580571e+04 </wgt>
<wgt id='1069'> +7.4663539e+04 </wgt>
<wgt id='1070'> +7.4541783e+04 </wgt>
<wgt id='1071'> +7.4637910e+04 </wgt>
<wgt id='1072'> +7.4532101e+04 </wgt>
<wgt id='1073'> +7.4434210e+04 </wgt>
<wgt id='1074'> +7.4426727e+04 </wgt>
<wgt id='1075'> +7.4645053e+04 </wgt>
<wgt id='1076'> +7.4539885e+04 </wgt>
<wgt id='1077'> +7.4497832e+04 </wgt>
<wgt id='1078'> +7.4594387e+04 </wgt>
<wgt id='1079'> +7.4585548e+04 </wgt>
<wgt id='1080'> +7.4521491e+04 </wgt>
<wgt id='1081'> +7.4529307e+04 </wgt>
<wgt id='1082'> +7.4514254e+04 </wgt>
<wgt id='1083'> +7.4435533e+04 </wgt>
<wgt id='1084'> +7.4594610e+04 </wgt>
<wgt id='1085'> +7.4454421e+04 </wgt>
<wgt id='1086'> +7.4559303e+04 </wgt>
<wgt id='1087'> +7.4508213e+04 </wgt>
<wgt id='1088'> +7.4469055e+04 </wgt>
<wgt id='1089'> +7.4546638e+04 </wgt>
<wgt id='1090'> +7.4523611e+04 </wgt>
<wgt id='1091'> +7.4461345e+04 </wgt>
<wgt id='1092'> +7.4498047e+04 </wgt>
<wgt id='1093'> +7.4482376e+04 </wgt>
<wgt id='1094'> +7.4502191e+04 </wgt>
<wgt id='1095'> +7.4474285e+04 </wgt>
<wgt id='1096'> +7.4507530e+04 </wgt>
<wgt id='1097'> +7.4542500e+04 </wgt>
<wgt id='1098'> +7.4510676e+04 </wgt>
<wgt id='1099'> +7.4492580e+04 </wgt>
<wgt id='1100'> +7.4528056e+04 </wgt>
<wgt id='1101'> +7.4507247e+04 </wgt>
<wgt id='1102'> +7.4520164e+04 </wgt>
<wgt id='1103'> +7.4493792e+04 </wgt>
<wgt id='1104'> +7.4466055e+04 </wgt>
<wgt id='1105'> +7.4533957e+04 </wgt>
<wgt id='1106'> +7.4444123e+04 </wgt>
<wgt id='1107'> +7.4514325e+04 </wgt>
<wgt id='1108'> +7.4549432e+04 </wgt>
<wgt id='1109'> +7.4501611e+04 </wgt>
<wgt id='1110'> +7.4519530e+04 </wgt>
<wgt id='1111'> +7.3916481e+04 </wgt>
<wgt id='1112'> +7.4959285e+04 </wgt>
<wgt id='1113'> +7.4519530e+04 </wgt>
<wgt id='1114'> +7.9190504e+04 </wgt>
<wgt id='1115'> +7.5512373e+04 </wgt>
<wgt id='1116'> +7.3043425e+04 </wgt>
<wgt id='1117'> +7.1769508e+04 </wgt>
<wgt id='1118'> +7.3057307e+04 </wgt>
<wgt id='1119'> +7.6200411e+04 </wgt>
<wgt id='1120'> +7.5465477e+04 </wgt>
<wgt id='1121'> +7.4283002e+04 </wgt>
<wgt id='1122'> +7.3960296e+04 </wgt>
<wgt id='1123'> +7.2087803e+04 </wgt>
<wgt id='1124'> +7.4136474e+04 </wgt>
<wgt id='1125'> +7.2586309e+04 </wgt>
<wgt id='1126'> +7.3435717e+04 </wgt>
<wgt id='1127'> +7.6323917e+04 </wgt>
<wgt id='1128'> +7.5685187e+04 </wgt>
<wgt id='1129'> +7.4399477e+04 </wgt>
<wgt id='1130'> +7.6072166e+04 </wgt>
<wgt id='1131'> +7.4118401e+04 </wgt>
<wgt id='1132'> +7.4904535e+04 </wgt>
<wgt id='1133'> +7.2209663e+04 </wgt>
<wgt id='1134'> +7.2981513e+04 </wgt>
<wgt id='1135'> +7.5197577e+04 </wgt>
<wgt id='1136'> +7.6480721e+04 </wgt>
<wgt id='1137'> +7.3864002e+04 </wgt>
<wgt id='1138'> +7.4280370e+04 </wgt>
<wgt id='1139'> +7.6181864e+04 </wgt>
<wgt id='1140'> +7.6949441e+04 </wgt>
<wgt id='1141'> +7.4652443e+04 </wgt>
<wgt id='1142'> +7.4912471e+04 </wgt>
<wgt id='1143'> +7.6545217e+04 </wgt>
<wgt id='1144'> +7.4645658e+04 </wgt>
<wgt id='1145'> +7.3943840e+04 </wgt>
<wgt id='1146'> +7.5958706e+04 </wgt>
<wgt id='1147'> +7.2695981e+04 </wgt>
<wgt id='1148'> +7.4176967e+04 </wgt>
<wgt id='1149'> +7.4822786e+04 </wgt>
<wgt id='1150'> +7.4233182e+04 </wgt>
<wgt id='1151'> +7.3512776e+04 </wgt>
<wgt id='1152'> +7.3597635e+04 </wgt>
<wgt id='1153'> +7.3959450e+04 </wgt>
<wgt id='1154'> +7.3370060e+04 </wgt>
<wgt id='1155'> +7.5464929e+04 </wgt>
<wgt id='1156'> +7.4746787e+04 </wgt>
<wgt id='1157'> +7.4240307e+04 </wgt>
<wgt id='1158'> +7.4374953e+04 </wgt>
<wgt id='1159'> +7.4627808e+04 </wgt>
<wgt id='1160'> +7.4228485e+04 </wgt>
<wgt id='1161'> +7.5292388e+04 </wgt>
<wgt id='1162'> +7.6751467e+04 </wgt>
<wgt id='1163'> +7.4287038e+04 </wgt>
<wgt id='1164'> +7.5357071e+04 </wgt>
<wgt id='1165'> +7.4166953e+04 </wgt>
<wgt id='1166'> +7.5328358e+04 </wgt>
<wgt id='1167'> +7.6251112e+04 </wgt>
<wgt id='1168'> +7.4795067e+04 </wgt>
<wgt id='1169'> +7.5373592e+04 </wgt>
<wgt id='1170'> +7.7710075e+04 </wgt>
<wgt id='1171'> +7.4677600e+04 </wgt>
<wgt id='1172'> +7.5429268e+04 </wgt>
<wgt id='1173'> +7.6230641e+04 </wgt>
<wgt id='1174'> +7.4418082e+04 </wgt>
<wgt id='1175'> +7.5265677e+04 </wgt>
<wgt id='1176'> +7.3379885e+04 </wgt>
<wgt id='1177'> +7.3801803e+04 </wgt>
<wgt id='1178'> +7.5044436e+04 </wgt>
<wgt id='1179'> +7.6981241e+04 </wgt>
<wgt id='1180'> +7.4885308e+04 </wgt>
<wgt id='1181'> +7.5525630e+04 </wgt>
<wgt id='1182'> +7.4037185e+04 </wgt>
<wgt id='1183'> +7.4154449e+04 </wgt>
<wgt id='1184'> +7.4197210e+04 </wgt>
<wgt id='1185'> +7.6779042e+04 </wgt>
<wgt id='1186'> +7.0798327e+04 </wgt>
<wgt id='1187'> +7.1754218e+04 </wgt>
<wgt id='1188'> +7.3358834e+04 </wgt>
<wgt id='1189'> +7.5665985e+04 </wgt>
<wgt id='1190'> +7.1630666e+04 </wgt>
<wgt id='1191'> +7.5327090e+04 </wgt>
<wgt id='1192'> +7.3407956e+04 </wgt>
<wgt id='1193'> +7.2859930e+04 </wgt>
<wgt id='1194'> +7.4052052e+04 </wgt>
<wgt id='1195'> +7.4399477e+04 </wgt>
<wgt id='1196'> +7.1199130e+04 </wgt>
<wgt id='1197'> +7.4118820e+04 </wgt>
<wgt id='1198'> +7.3918300e+04 </wgt>
<wgt id='1199'> +7.8422775e+04 </wgt>
<wgt id='1200'> +7.4918020e+04 </wgt>
<wgt id='1201'> +7.5382558e+04 </wgt>
<wgt id='1202'> +6.8149335e+04 </wgt>
<wgt id='1203'> +7.3051445e+04 </wgt>
<wgt id='1204'> +7.5709547e+04 </wgt>
<wgt id='1205'> +7.3770831e+04 </wgt>
<wgt id='1206'> +7.3998566e+04 </wgt>
<wgt id='1207'> +7.6745463e+04 </wgt>
<wgt id='1208'> +7.4350612e+04 </wgt>
<wgt id='1209'> +7.4965673e+04 </wgt>
<wgt id='1210'> +7.4745683e+04 </wgt>
<wgt id='1211'> +7.3618066e+04 </wgt>
<wgt id='1212'> +7.4034815e+04 </wgt>
<wgt id='1213'> +7.4456565e+04 </wgt>
<wgt id='1214'> +7.4458239e+04 </wgt>
<wgt id='1215'> +7.2895748e+04 </wgt>
<wgt id='1216'> +7.2874078e+04 </wgt>
<wgt id='1217'> +7.3265333e+04 </wgt>
<wgt id='1218'> +7.3941619e+04 </wgt>
<wgt id='1219'> +7.4424697e+04 </wgt>
<wgt id='1220'> +7.4647276e+04 </wgt>
<wgt id='1221'> +7.5298578e+04 </wgt>
<wgt id='1222'> +7.5243523e+04 </wgt>
<wgt id='1223'> +7.3107377e+04 </wgt>
<wgt id='1224'> +7.3052498e+04 </wgt>
<wgt id='1225'> +7.3245860e+04 </wgt>
<wgt id='1226'> +7.3026426e+04 </wgt>
<wgt id='1227'> +7.3408695e+04 </wgt>
<wgt id='1228'> +7.3104770e+04 </wgt>
<wgt id='1229'> +7.2891261e+04 </wgt>
<wgt id='1230'> +7.3091867e+04 </wgt>
<wgt id='1231'> +7.3087296e+04 </wgt>
<wgt id='1232'> +7.3169178e+04 </wgt>
<wgt id='1233'> +7.2774588e+04 </wgt>
<wgt id='1234'> +7.2997009e+04 </wgt>
<wgt id='1235'> +7.3172346e+04 </wgt>
<wgt id='1236'> +7.3240950e+04 </wgt>
<wgt id='1237'> +7.3277858e+04 </wgt>
<wgt id='1238'> +7.2791461e+04 </wgt>
<wgt id='1239'> +7.3280337e+04 </wgt>
<wgt id='1240'> +7.2982808e+04 </wgt>
<wgt id='1241'> +7.3287039e+04 </wgt>
<wgt id='1242'> +7.3140591e+04 </wgt>
<wgt id='1243'> +7.2807055e+04 </wgt>
<wgt id='1244'> +7.3406375e+04 </wgt>
<wgt id='1245'> +7.3172155e+04 </wgt>
<wgt id='1246'> +7.3195284e+04 </wgt>
<wgt id='1247'> +7.3473904e+04 </wgt>
<wgt id='1248'> +7.2750998e+04 </wgt>
<wgt id='1249'> +7.3112624e+04 </wgt>
<wgt id='1250'> +7.3021687e+04 </wgt>
<wgt id='1251'> +7.3115714e+04 </wgt>
<wgt id='1252'> +7.3797937e+04 </wgt>
<wgt id='1253'> +7.2792655e+04 </wgt>
<wgt id='1254'> +7.2573346e+04 </wgt>
<wgt id='1255'> +7.3362110e+04 </wgt>
<wgt id='1256'> +7.3056498e+04 </wgt>
<wgt id='1257'> +7.3043693e+04 </wgt>
<wgt id='1258'> +7.3320086e+04 </wgt>
<wgt id='1259'> +7.3172431e+04 </wgt>
<wgt id='1260'> +7.2870147e+04 </wgt>
<wgt id='1261'> +7.3056649e+04 </wgt>
<wgt id='1262'> +7.3192194e+04 </wgt>
<wgt id='1263'> +7.3071385e+04 </wgt>
<wgt id='1264'> +7.3323576e+04 </wgt>
<wgt id='1265'> +7.2960059e+04 </wgt>
<wgt id='1266'> +7.2893558e+04 </wgt>
<wgt id='1267'> +7.3021813e+04 </wgt>
<wgt id='1268'> +7.2946400e+04 </wgt>
<wgt id='1269'> +7.3219415e+04 </wgt>
<wgt id='1270'> +7.3337953e+04 </wgt>
<wgt id='1271'> +7.3248048e+04 </wgt>
<wgt id='1272'> +7.3083874e+04 </wgt>
<wgt id='1273'> +7.3184312e+04 </wgt>
<wgt id='1274'> +7.3066513e+04 </wgt>
<wgt id='1275'> +7.3043574e+04 </wgt>
<wgt id='1276'> +7.3026240e+04 </wgt>
<wgt id='1277'> +7.3132137e+04 </wgt>
<wgt id='1278'> +7.3239497e+04 </wgt>
<wgt id='1279'> +7.2966292e+04 </wgt>
<wgt id='1280'> +7.3091220e+04 </wgt>
<wgt id='1281'> +7.3136404e+04 </wgt>
<wgt id='1282'> +7.3149451e+04 </wgt>
<wgt id='1283'> +7.3005229e+04 </wgt>
<wgt id='1284'> +7.3146260e+04 </wgt>
<wgt id='1285'> +7.3161847e+04 </wgt>
<wgt id='1286'> +7.3243082e+04 </wgt>
<wgt id='1287'> +7.3057921e+04 </wgt>
<wgt id='1288'> +7.3059936e+04 </wgt>
<wgt id='1289'> +7.3165644e+04 </wgt>
<wgt id='1290'> +7.3043930e+04 </wgt>
<wgt id='1291'> +7.3120426e+04 </wgt>
<wgt id='1292'> +7.3104604e+04 </wgt>
<wgt id='1293'> +7.3143379e+04 </wgt>
<wgt id='1294'> +7.3123196e+04 </wgt>
<wgt id='1295'> +7.3202802e+04 </wgt>
<wgt id='1296'> +7.3061675e+04 </wgt>
<wgt id='1297'> +7.3167269e+04 </wgt>
<wgt id='1298'> +7.3166737e+04 </wgt>
<wgt id='1299'> +7.3147082e+04 </wgt>
<wgt id='1300'> +7.3125872e+04 </wgt>
<wgt id='1301'> +7.3186919e+04 </wgt>
<wgt id='1302'> +7.3155839e+04 </wgt>
<wgt id='1303'> +7.3115795e+04 </wgt>
<wgt id='1304'> +7.3141970e+04 </wgt>
<wgt id='1305'> +7.3051736e+04 </wgt>
<wgt id='1306'> +7.3069898e+04 </wgt>
<wgt id='1307'> +7.3119349e+04 </wgt>
<wgt id='1308'> +7.3063370e+04 </wgt>
<wgt id='1309'> +7.3127629e+04 </wgt>
<wgt id='1310'> +7.3023178e+04 </wgt>
<wgt id='1311'> +7.3113231e+04 </wgt>
<wgt id='1312'> +7.3130227e+04 </wgt>
<wgt id='1313'> +7.3181959e+04 </wgt>
<wgt id='1314'> +7.3134835e+04 </wgt>
<wgt id='1315'> +7.3129905e+04 </wgt>
<wgt id='1316'> +7.3105224e+04 </wgt>
<wgt id='1317'> +7.3098221e+04 </wgt>
<wgt id='1318'> +7.3111861e+04 </wgt>
<wgt id='1319'> +7.3058032e+04 </wgt>
<wgt id='1320'> +7.3062769e+04 </wgt>
<wgt id='1321'> +7.3109609e+04 </wgt>
<wgt id='1322'> +7.3123752e+04 </wgt>
<wgt id='1323'> +7.3114426e+04 </wgt>
<wgt id='1324'> +7.2681583e+04 </wgt>
<wgt id='1325'> +7.3728699e+04 </wgt>
<wgt id='1326'> +7.2090211e+04 </wgt>
<wgt id='1327'> +6.8474332e+04 </wgt>
<wgt id='1328'> +7.3114212e+04 </wgt>
<wgt id='1329'> +7.2261474e+04 </wgt>
<wgt id='1330'> +7.4299700e+04 </wgt>
<wgt id='1331'> +7.2710397e+04 </wgt>
<wgt id='1332'> +7.4852826e+04 </wgt>
<wgt id='1333'> +7.3498261e+04 </wgt>
<wgt id='1334'> +7.1888716e+04 </wgt>
<wgt id='1335'> +7.1090374e+04 </wgt>
<wgt id='1336'> +7.3579403e+04 </wgt>
<wgt id='1337'> +7.3803653e+04 </wgt>
<wgt id='1338'> +7.2544826e+04 </wgt>
<wgt id='1339'> +7.3319997e+04 </wgt>
<wgt id='1340'> +7.1954136e+04 </wgt>
<wgt id='1341'> +7.1481862e+04 </wgt>
<wgt id='1342'> +7.4851909e+04 </wgt>
<wgt id='1343'> +7.3185174e+04 </wgt>
<wgt id='1344'> +7.2449155e+04 </wgt>
<wgt id='1345'> +7.4931526e+04 </wgt>
<wgt id='1346'> +7.3910007e+04 </wgt>
<wgt id='1347'> +7.3925345e+04 </wgt>
<wgt id='1348'> +6.9479978e+04 </wgt>
<wgt id='1349'> +7.3416387e+04 </wgt>
<wgt id='1350'> +7.3774741e+04 </wgt>
<wgt id='1351'> +7.1794944e+04 </wgt>
<wgt id='1352'> +7.5048207e+04 </wgt>
<wgt id='1353'> +7.5314256e+04 </wgt>
<wgt id='1354'> +7.2416260e+04 </wgt>
<wgt id='1355'> +7.4157908e+04 </wgt>
<wgt id='1356'> +7.4416049e+04 </wgt>
<wgt id='1357'> +7.2542021e+04 </wgt>
<wgt id='1358'> +7.3549589e+04 </wgt>
<wgt id='1359'> +7.2821309e+04 </wgt>
<wgt id='1360'> +7.5202243e+04 </wgt>
<wgt id='1361'> +7.5290848e+04 </wgt>
<wgt id='1362'> +7.3408202e+04 </wgt>
<wgt id='1363'> +7.1663982e+04 </wgt>
<wgt id='1364'> +7.2746395e+04 </wgt>
<wgt id='1365'> +7.3162959e+04 </wgt>
<wgt id='1366'> +7.3493267e+04 </wgt>
<wgt id='1367'> +7.4878372e+04 </wgt>
<wgt id='1368'> +7.2941579e+04 </wgt>
<wgt id='1369'> +7.2952272e+04 </wgt>
<wgt id='1370'> +7.0447180e+04 </wgt>
<wgt id='1371'> +7.3516419e+04 </wgt>
<wgt id='1372'> +7.5429142e+04 </wgt>
<wgt id='1373'> +7.2589254e+04 </wgt>
<wgt id='1374'> +7.3598333e+04 </wgt>
<wgt id='1375'> +7.3837395e+04 </wgt>
<wgt id='1376'> +7.2546231e+04 </wgt>
<wgt id='1377'> +7.4605213e+04 </wgt>
<wgt id='1378'> +7.2850252e+04 </wgt>
<wgt id='1379'> +7.2974336e+04 </wgt>
<wgt id='1380'> +7.2697489e+04 </wgt>
<wgt id='1381'> +7.3570795e+04 </wgt>
<wgt id='1382'> +7.0751767e+04 </wgt>
<wgt id='1383'> +7.2300727e+04 </wgt>
<wgt id='1384'> +7.3302652e+04 </wgt>
<wgt id='1385'> +6.7286527e+04 </wgt>
<wgt id='1386'> +7.4451273e+04 </wgt>
<wgt id='1387'> +7.3557636e+04 </wgt>
<wgt id='1388'> +7.4102542e+04 </wgt>
<wgt id='1389'> +7.3053165e+04 </wgt>
<wgt id='1390'> +6.9331599e+04 </wgt>
<wgt id='1391'> +7.2327702e+04 </wgt>
<wgt id='1392'> +7.1860889e+04 </wgt>
<wgt id='1393'> +7.0910842e+04 </wgt>
<wgt id='1394'> +7.3162959e+04 </wgt>
<wgt id='1395'> +7.3104156e+04 </wgt>
<wgt id='1396'> +7.4391597e+04 </wgt>
<wgt id='1397'> +7.3732165e+04 </wgt>
<wgt id='1398'> +7.4687764e+04 </wgt>
<wgt id='1399'> +7.2853907e+04 </wgt>
<wgt id='1400'> +7.3794524e+04 </wgt>
<wgt id='1401'> +7.2169424e+04 </wgt>
<wgt id='1402'> +7.3482359e+04 </wgt>
<wgt id='1403'> +7.5433931e+04 </wgt>
<wgt id='1404'> +7.4199135e+04 </wgt>
<wgt id='1405'> +7.0415375e+04 </wgt>
<wgt id='1406'> +7.2763062e+04 </wgt>
<wgt id='1407'> +7.4954691e+04 </wgt>
<wgt id='1408'> +7.4341264e+04 </wgt>
<wgt id='1409'> +7.2456128e+04 </wgt>
<wgt id='1410'> +7.3949869e+04 </wgt>
<wgt id='1411'> +7.3519170e+04 </wgt>
<wgt id='1412'> +7.3678319e+04 </wgt>
<wgt id='1413'> +7.3724867e+04 </wgt>
<wgt id='1414'> +7.0191444e+04 </wgt>
<wgt id='1415'> +7.1478877e+04 </wgt>
<wgt id='1416'> +7.2801198e+04 </wgt>
<wgt id='1417'> +7.2005692e+04 </wgt>
<wgt id='1418'> +7.5768781e+04 </wgt>
<wgt id='1419'> +7.3215390e+04 </wgt>
<wgt id='1420'> +7.1587191e+04 </wgt>
<wgt id='1421'> +7.2908233e+04 </wgt>
<wgt id='1422'> +7.3055838e+04 </wgt>
<wgt id='1423'> +7.3760299e+04 </wgt>
<wgt id='1424'> +7.2465944e+04 </wgt>
<wgt id='1425'> +7.3614384e+04 </wgt>
<wgt id='1426'> +7.2757001e+04 </wgt>
<wgt id='1427'> +7.3513295e+04 </wgt>
<wgt id='1428'> +7.4488575e+04 </wgt>
<wgt id='1429'> +7.3126256e+04 </wgt>
<wgt id='1430'> +7.3043403e+04 </wgt>
<wgt id='1431'> +7.3092798e+04 </wgt>
<wgt id='1432'> +7.3361132e+04 </wgt>
<wgt id='1433'> +7.3064569e+04 </wgt>
<wgt id='1434'> +7.3073880e+04 </wgt>
<wgt id='1435'> +7.2833687e+04 </wgt>
<wgt id='1436'> +7.2513404e+04 </wgt>
<wgt id='1437'> +7.3387825e+04 </wgt>
<wgt id='1438'> +7.3162096e+04 </wgt>
<wgt id='1439'> +7.2452018e+04 </wgt>
<wgt id='1440'> +7.3012593e+04 </wgt>
<wgt id='1441'> +7.2880951e+04 </wgt>
<wgt id='1442'> +7.2894847e+04 </wgt>
<wgt id='1443'> +7.2961228e+04 </wgt>
<wgt id='1444'> +7.2699734e+04 </wgt>
<wgt id='1445'> +7.2572745e+04 </wgt>
<wgt id='1446'> +7.3189607e+04 </wgt>
<wgt id='1447'> +7.2919603e+04 </wgt>
<wgt id='1448'> +7.3193368e+04 </wgt>
<wgt id='1449'> +7.3084598e+04 </wgt>
<wgt id='1450'> +7.3008585e+04 </wgt>
<wgt id='1451'> +7.2972836e+04 </wgt>
<wgt id='1452'> +7.2897665e+04 </wgt>
<wgt id='1453'> +7.2978376e+04 </wgt>
<wgt id='1454'> +7.3063916e+04 </wgt>
<wgt id='1455'> +7.3013946e+04 </wgt>
<wgt id='1456'> +7.3057907e+04 </wgt>
<wgt id='1457'> +7.2898094e+04 </wgt>
<wgt id='1458'> +7.3098332e+04 </wgt>
<wgt id='1459'> +7.3133972e+04 </wgt>
<wgt id='1460'> +7.2976592e+04 </wgt>
<wgt id='1461'> +7.3123018e+04 </wgt>
<wgt id='1462'> +7.3060190e+04 </wgt>
<wgt id='1463'> +7.3057793e+04 </wgt>
<wgt id='1464'> +7.3006881e+04 </wgt>
<wgt id='1465'> +7.3103497e+04 </wgt>
<wgt id='1466'> +7.3024830e+04 </wgt>
<wgt id='1467'> +7.3081347e+04 </wgt>
<wgt id='1468'> +7.3056006e+04 </wgt>
<wgt id='1469'> +7.3135390e+04 </wgt>
<wgt id='1470'> +7.3104183e+04 </wgt>
<wgt id='1471'> +7.3087760e+04 </wgt>
<wgt id='1472'> +7.3052908e+04 </wgt>
<wgt id='1473'> +7.3122305e+04 </wgt>
<wgt id='1474'> +7.3102832e+04 </wgt>
<wgt id='1475'> +7.3118118e+04 </wgt>
<wgt id='1476'> +7.3134697e+04 </wgt>
<wgt id='1477'> +7.3084821e+04 </wgt>
<wgt id='1478'> +7.3146124e+04 </wgt>
<wgt id='1479'> +7.3078466e+04 </wgt>
<wgt id='1480'> +7.3037102e+04 </wgt>
<wgt id='1481'> +7.3107872e+04 </wgt>
<wgt id='1482'> +7.3126256e+04 </wgt>
<wgt id='1483'> +7.3043403e+04 </wgt>
<wgt id='1484'> +7.4244003e+04 </wgt>
<wgt id='1485'> +7.4332568e+04 </wgt>
<wgt id='1486'> +7.5437933e+04 </wgt>
<wgt id='1487'> +7.3621883e+04 </wgt>
<wgt id='1488'> +7.4634064e+04 </wgt>
<wgt id='1489'> +7.3845377e+04 </wgt>
<wgt id='1490'> +7.1549643e+04 </wgt>
<wgt id='1491'> +7.3908950e+04 </wgt>
<wgt id='1492'> +7.2543446e+04 </wgt>
<wgt id='1493'> +7.4926499e+04 </wgt>
<wgt id='1494'> +7.4504816e+04 </wgt>
<wgt id='1495'> +7.1652787e+04 </wgt>
<wgt id='1496'> +7.2000442e+04 </wgt>
<wgt id='1497'> +7.2308377e+04 </wgt>
<wgt id='1498'> +7.5775828e+04 </wgt>
<wgt id='1499'> +7.5444060e+04 </wgt>
<wgt id='1500'> +7.2784807e+04 </wgt>
<wgt id='1501'> +7.3304187e+04 </wgt>
<wgt id='1502'> +7.4629977e+04 </wgt>
<wgt id='1503'> +7.3595614e+04 </wgt>
<wgt id='1504'> +7.4260537e+04 </wgt>
<wgt id='1505'> +7.4771515e+04 </wgt>
<wgt id='1506'> +7.3950735e+04 </wgt>
<wgt id='1507'> +7.3329754e+04 </wgt>
<wgt id='1508'> +7.2445338e+04 </wgt>
<wgt id='1509'> +7.6214845e+04 </wgt>
<wgt id='1510'> +7.7358170e+04 </wgt>
<wgt id='1511'> +7.5528965e+04 </wgt>
<wgt id='1512'> +7.4034922e+04 </wgt>
<wgt id='1513'> +7.3157850e+04 </wgt>
<wgt id='1514'> +7.3651354e+04 </wgt>
<wgt id='1515'> +7.4161294e+04 </wgt>
<wgt id='1516'> +7.4319682e+04 </wgt>
<wgt id='1517'> +7.5098827e+04 </wgt>
<wgt id='1518'> +7.4265729e+04 </wgt>
<wgt id='1519'> +7.3880795e+04 </wgt>
<wgt id='1520'> +7.5728871e+04 </wgt>
<wgt id='1521'> +7.3712355e+04 </wgt>
<wgt id='1522'> +7.5211389e+04 </wgt>
<wgt id='1523'> +7.4427424e+04 </wgt>
<wgt id='1524'> +7.5361584e+04 </wgt>
<wgt id='1525'> +7.3798014e+04 </wgt>
<wgt id='1526'> +7.3395491e+04 </wgt>
<wgt id='1527'> +7.4510884e+04 </wgt>
<wgt id='1528'> +7.4511757e+04 </wgt>
<wgt id='1529'> +7.4589266e+04 </wgt>
<wgt id='1530'> +7.3584637e+04 </wgt>
<wgt id='1531'> +7.5119032e+04 </wgt>
<wgt id='1532'> +7.3838087e+04 </wgt>
<wgt id='1533'> +7.6382142e+04 </wgt>
<wgt id='1534'> +7.4400081e+04 </wgt>
<wgt id='1535'> +7.5005604e+04 </wgt>
<wgt id='1536'> +7.3665389e+04 </wgt>
<wgt id='1537'> +7.5356162e+04 </wgt>
<wgt id='1538'> +7.3989091e+04 </wgt>
<wgt id='1539'> +7.4679474e+04 </wgt>
<wgt id='1540'> +7.5056307e+04 </wgt>
<wgt id='1541'> +7.4514936e+04 </wgt>
<wgt id='1542'> +7.4530873e+04 </wgt>
<wgt id='1543'> +7.5085096e+04 </wgt>
<wgt id='1544'> +7.4111972e+04 </wgt>
<wgt id='1545'> +7.4775129e+04 </wgt>
<wgt id='1546'> +7.3165634e+04 </wgt>
<wgt id='1547'> +7.4444334e+04 </wgt>
<wgt id='1548'> +7.4592714e+04 </wgt>
<wgt id='1549'> +7.5711866e+04 </wgt>
<wgt id='1550'> +7.6359231e+04 </wgt>
<wgt id='1551'> +7.5159313e+04 </wgt>
<wgt id='1552'> +7.4417743e+04 </wgt>
<wgt id='1553'> +7.5710076e+04 </wgt>
<wgt id='1554'> +7.4490074e+04 </wgt>
<wgt id='1555'> +7.3124853e+04 </wgt>
<wgt id='1556'> +7.1672167e+04 </wgt>
<wgt id='1557'> +7.3999116e+04 </wgt>
<wgt id='1558'> +7.4036387e+04 </wgt>
<wgt id='1559'> +7.5399765e+04 </wgt>
<wgt id='1560'> +7.5400998e+04 </wgt>
<wgt id='1561'> +7.5973407e+04 </wgt>
<wgt id='1562'> +7.4301893e+04 </wgt>
<wgt id='1563'> +7.4878881e+04 </wgt>
<wgt id='1564'> +7.4478842e+04 </wgt>
<wgt id='1565'> +7.4962347e+04 </wgt>
<wgt id='1566'> +7.2936625e+04 </wgt>
<wgt id='1567'> +7.4678194e+04 </wgt>
<wgt id='1568'> +7.4190526e+04 </wgt>
<wgt id='1569'> +7.4222421e+04 </wgt>
<wgt id='1570'> +7.4729460e+04 </wgt>
<wgt id='1571'> +7.3468895e+04 </wgt>
<wgt id='1572'> +7.3082395e+04 </wgt>
<wgt id='1573'> +7.4339687e+04 </wgt>
<wgt id='1574'> +7.2005291e+04 </wgt>
<wgt id='1575'> +7.2910456e+04 </wgt>
<wgt id='1576'> +7.4410724e+04 </wgt>
<wgt id='1577'> +7.1547847e+04 </wgt>
<wgt id='1578'> +7.5235612e+04 </wgt>
<wgt id='1579'> +7.2254193e+04 </wgt>
<wgt id='1580'> +7.4647897e+04 </wgt>
<wgt id='1581'> +7.6118897e+04 </wgt>
<wgt id='1582'> +7.4616397e+04 </wgt>
<wgt id='1583'> +7.4364288e+04 </wgt>
<wgt id='1584'> +7.1913803e+04 </wgt>
<wgt id='1585'> +7.2220950e+04 </wgt>
<wgt id='1586'> +6.6092359e+04 </wgt>
<wgt id='1587'> +7.3363157e+04 </wgt>
<wgt id='1588'> +7.3126256e+04 </wgt>
<wgt id='1589'> +7.2877390e+04 </wgt>
<wgt id='1590'> +7.2798721e+04 </wgt>
<wgt id='1591'> +7.3043403e+04 </wgt>
<wgt id='1592'> +7.2645863e+04 </wgt>
<wgt id='1593'> +7.5384881e+04 </wgt>
<wgt id='1594'> +7.4634396e+04 </wgt>
<wgt id='1595'> +7.4736595e+04 </wgt>
<wgt id='1596'> +7.5075737e+04 </wgt>
<wgt id='1597'> +7.5886357e+04 </wgt>
<wgt id='1598'> +7.4168741e+04 </wgt>
<wgt id='1599'> +7.6294686e+04 </wgt>
<wgt id='1600'> +7.3995777e+04 </wgt>
<wgt id='1601'> +7.6733028e+04 </wgt>
<wgt id='1602'> +7.3790069e+04 </wgt>
<wgt id='1603'> +7.6891203e+04 </wgt>
<wgt id='1604'> +7.6439352e+04 </wgt>
<wgt id='1605'> +7.5398346e+04 </wgt>
<wgt id='1606'> +7.4231435e+04 </wgt>
<wgt id='1607'> +7.5992906e+04 </wgt>
<wgt id='1608'> +7.4409489e+04 </wgt>
<wgt id='1609'> +7.5470064e+04 </wgt>
<wgt id='1610'> +7.6052936e+04 </wgt>
<wgt id='1611'> +7.4532597e+04 </wgt>
<wgt id='1612'> +7.6619391e+04 </wgt>
<wgt id='1613'> +7.3089761e+04 </wgt>
<wgt id='1614'> +7.5582886e+04 </wgt>
<wgt id='1615'> +7.5135387e+04 </wgt>
<wgt id='1616'> +7.5226904e+04 </wgt>
<wgt id='1617'> +7.4821470e+04 </wgt>
<wgt id='1618'> +7.5276490e+04 </wgt>
<wgt id='1619'> +7.5828761e+04 </wgt>
<wgt id='1620'> +7.5323708e+04 </wgt>
<wgt id='1621'> +7.5280104e+04 </wgt>
<wgt id='1622'> +7.5045524e+04 </wgt>
<wgt id='1623'> +7.4623342e+04 </wgt>
<wgt id='1624'> +7.5921667e+04 </wgt>
<wgt id='1625'> +7.4018502e+04 </wgt>
<wgt id='1626'> +7.4331331e+04 </wgt>
<wgt id='1627'> +7.6038561e+04 </wgt>
<wgt id='1628'> +7.5697243e+04 </wgt>
<wgt id='1629'> +7.5270246e+04 </wgt>
<wgt id='1630'> +7.4884854e+04 </wgt>
<wgt id='1631'> +7.5266710e+04 </wgt>
<wgt id='1632'> +7.5821524e+04 </wgt>
<wgt id='1633'> +7.4602275e+04 </wgt>
<wgt id='1634'> +7.6027369e+04 </wgt>
<wgt id='1635'> +7.4619462e+04 </wgt>
<wgt id='1636'> +7.5095489e+04 </wgt>
<wgt id='1637'> +7.5720526e+04 </wgt>
<wgt id='1638'> +7.5377904e+04 </wgt>
<wgt id='1639'> +7.5382351e+04 </wgt>
<wgt id='1640'> +7.6078894e+04 </wgt>
<wgt id='1641'> +7.4482802e+04 </wgt>
<wgt id='1642'> +7.4609728e+04 </wgt>
<wgt id='1643'> +7.5913503e+04 </wgt>
<wgt id='1644'> +7.6460679e+04 </wgt>
<wgt id='1645'> +7.3838475e+04 </wgt>
<wgt id='1646'> +7.5501916e+04 </wgt>
<wgt id='1647'> +7.5678746e+04 </wgt>
<wgt id='1648'> +7.5504137e+04 </wgt>
<wgt id='1649'> +7.5284880e+04 </wgt>
<wgt id='1650'> +7.5885866e+04 </wgt>
<wgt id='1651'> +7.4672730e+04 </wgt>
<wgt id='1652'> +7.5061563e+04 </wgt>
<wgt id='1653'> +7.5221483e+04 </wgt>
<wgt id='1654'> +7.5558975e+04 </wgt>
<wgt id='1655'> +7.5748525e+04 </wgt>
<wgt id='1656'> +7.6740801e+04 </wgt>
<wgt id='1657'> +7.6207253e+04 </wgt>
<wgt id='1658'> +7.6037601e+04 </wgt>
<wgt id='1659'> +7.7662325e+04 </wgt>
<wgt id='1660'> +7.6966463e+04 </wgt>
<wgt id='1661'> +7.7319805e+04 </wgt>
<wgt id='1662'> +7.5766579e+04 </wgt>
<wgt id='1663'> +7.5816887e+04 </wgt>
<wgt id='1664'> +7.6264802e+04 </wgt>
<wgt id='1665'> +7.6012631e+04 </wgt>
<wgt id='1666'> +7.7217887e+04 </wgt>
<wgt id='1667'> +7.6596063e+04 </wgt>
<wgt id='1668'> +7.6973247e+04 </wgt>
<wgt id='1669'> +7.7669807e+04 </wgt>
<wgt id='1670'> +7.5579874e+04 </wgt>
<wgt id='1671'> +7.7378577e+04 </wgt>
<wgt id='1672'> +7.6521564e+04 </wgt>
<wgt id='1673'> +7.7054220e+04 </wgt>
<wgt id='1674'> +7.7024111e+04 </wgt>
<wgt id='1675'> +7.7525513e+04 </wgt>
<wgt id='1676'> +7.5954821e+04 </wgt>
<wgt id='1677'> +7.6663180e+04 </wgt>
<wgt id='1678'> +7.7412857e+04 </wgt>
<wgt id='1679'> +7.6116851e+04 </wgt>
<wgt id='1680'> +7.7952179e+04 </wgt>
<wgt id='1681'> +7.7185079e+04 </wgt>
<wgt id='1682'> +7.5748180e+04 </wgt>
<wgt id='1683'> +7.6544149e+04 </wgt>
<wgt id='1684'> +7.6816248e+04 </wgt>
<wgt id='1685'> +7.7098476e+04 </wgt>
<wgt id='1686'> +7.5891422e+04 </wgt>
<wgt id='1687'> +7.7211375e+04 </wgt>
<wgt id='1688'> +7.5786143e+04 </wgt>
<wgt id='1689'> +7.6364603e+04 </wgt>
<wgt id='1690'> +7.7880953e+04 </wgt>
<wgt id='1691'> +7.6974475e+04 </wgt>
<wgt id='1692'> +7.6272025e+04 </wgt>
<wgt id='1693'> +7.8152445e+04 </wgt>
<wgt id='1694'> +7.5976807e+04 </wgt>
<wgt id='1695'> +7.6341761e+04 </wgt>
<wgt id='1696'> +7.6678582e+04 </wgt>
<wgt id='1697'> +7.7305110e+04 </wgt>
<wgt id='1698'> +7.6076386e+04 </wgt>
<wgt id='1699'> +7.5584648e+04 </wgt>
<wgt id='1700'> +7.7982414e+04 </wgt>
<wgt id='1701'> +7.5287498e+04 </wgt>
<wgt id='1702'> +7.8410265e+04 </wgt>
<wgt id='1703'> +7.6843571e+04 </wgt>
<wgt id='1704'> +7.7264784e+04 </wgt>
<wgt id='1705'> +7.6871454e+04 </wgt>
<wgt id='1706'> +7.6713668e+04 </wgt>
<wgt id='1707'> +7.5173874e+04 </wgt>
<wgt id='1708'> +7.7995238e+04 </wgt>
<wgt id='1709'> +7.6893298e+04 </wgt>
<wgt id='1710'> +7.6696042e+04 </wgt>
<wgt id='1711'> +7.6366975e+04 </wgt>
<wgt id='1712'> +7.6461901e+04 </wgt>
<wgt id='1713'> +7.6741199e+04 </wgt>
<wgt id='1714'> +7.6496079e+04 </wgt>
<wgt id='1715'> +7.4044254e+04 </wgt>
<wgt id='1716'> +7.6680348e+04 </wgt>
<wgt id='1717'> +7.0986126e+04 </wgt>
<wgt id='1718'> +7.0915028e+04 </wgt>
<wgt id='1719'> +7.1075085e+04 </wgt>
<wgt id='1720'> +7.0889965e+04 </wgt>
<wgt id='1721'> +7.1074019e+04 </wgt>
<wgt id='1722'> +7.0904628e+04 </wgt>
<wgt id='1723'> +7.1119657e+04 </wgt>
<wgt id='1724'> +7.1300446e+04 </wgt>
<wgt id='1725'> +7.0730900e+04 </wgt>
<wgt id='1726'> +7.0901323e+04 </wgt>
<wgt id='1727'> +7.1073179e+04 </wgt>
<wgt id='1728'> +7.0060411e+04 </wgt>
<wgt id='1729'> +7.1888211e+04 </wgt>
<wgt id='1730'> +7.1255332e+04 </wgt>
<wgt id='1731'> +7.0794511e+04 </wgt>
<wgt id='1732'> +7.1386093e+04 </wgt>
<wgt id='1733'> +7.1386093e+04 </wgt>
<wgt id='1734'> +7.0712177e+04 </wgt>
<wgt id='1735'> +7.1169163e+04 </wgt>
<wgt id='1736'> +7.0676475e+04 </wgt>
<wgt id='1737'> +7.1417460e+04 </wgt>
<wgt id='1738'> +7.1206185e+04 </wgt>
<wgt id='1739'> +7.0559593e+04 </wgt>
<wgt id='1740'> +7.0917841e+04 </wgt>
<wgt id='1741'> +7.1144428e+04 </wgt>
<wgt id='1742'> +7.0632224e+04 </wgt>
<wgt id='1743'> +7.1388552e+04 </wgt>
<wgt id='1744'> +7.1195068e+04 </wgt>
<wgt id='1745'> +7.0415512e+04 </wgt>
<wgt id='1746'> +7.0749018e+04 </wgt>
<wgt id='1747'> +7.1097741e+04 </wgt>
<wgt id='1748'> +7.1222934e+04 </wgt>
<wgt id='1749'> +7.0215413e+04 </wgt>
<wgt id='1750'> +7.1103849e+04 </wgt>
<wgt id='1751'> +7.0861716e+04 </wgt>
<wgt id='1752'> +7.0858980e+04 </wgt>
<wgt id='1753'> +7.1165255e+04 </wgt>
<wgt id='1754'> +7.1316354e+04 </wgt>
<wgt id='1755'> +7.0803076e+04 </wgt>
<wgt id='1756'> +7.0550152e+04 </wgt>
<wgt id='1757'> +7.2059788e+04 </wgt>
<wgt id='1758'> +7.1175123e+04 </wgt>
<wgt id='1759'> +7.0657705e+04 </wgt>
<wgt id='1760'> +7.1245489e+04 </wgt>
<wgt id='1761'> +7.0755432e+04 </wgt>
<wgt id='1762'> +7.0881759e+04 </wgt>
<wgt id='1763'> +7.1025844e+04 </wgt>
<wgt id='1764'> +7.0919123e+04 </wgt>
<wgt id='1765'> +7.1277125e+04 </wgt>
<wgt id='1766'> +7.0954666e+04 </wgt>
<wgt id='1767'> +7.1034653e+04 </wgt>
<wgt id='1768'> +7.0961996e+04 </wgt>
<wgt id='1769'> +7.1012946e+04 </wgt>
<wgt id='1770'> +7.0727979e+04 </wgt>
<wgt id='1771'> +7.1212961e+04 </wgt>
<wgt id='1772'> +7.1112351e+04 </wgt>
<wgt id='1773'> +7.0988755e+04 </wgt>
<wgt id='1774'> +7.0109246e+04 </wgt>
<wgt id='1775'> +7.1545855e+04 </wgt>
<wgt id='1776'> +7.0507511e+04 </wgt>
<wgt id='1777'> +7.1215340e+04 </wgt>
<wgt id='1778'> +7.0726342e+04 </wgt>
<wgt id='1779'> +7.0935201e+04 </wgt>
<wgt id='1780'> +7.1596679e+04 </wgt>
<wgt id='1781'> +7.1153094e+04 </wgt>
<wgt id='1782'> +7.0986126e+04 </wgt>
<wgt id='1783'> +7.1092401e+04 </wgt>
<wgt id='1784'> +7.2802154e+04 </wgt>
<wgt id='1785'> +7.2720399e+04 </wgt>
<wgt id='1786'> +7.0883488e+04 </wgt>
<wgt id='1787'> +7.2762645e+04 </wgt>
<wgt id='1788'> +7.3001126e+04 </wgt>
<wgt id='1789'> +7.2881224e+04 </wgt>
<wgt id='1790'> +7.2596185e+04 </wgt>
<wgt id='1791'> +7.2778122e+04 </wgt>
<wgt id='1792'> +7.2103754e+04 </wgt>
<wgt id='1793'> +7.2960981e+04 </wgt>
<wgt id='1794'> +7.3189430e+04 </wgt>
<wgt id='1795'> +7.2447208e+04 </wgt>
<wgt id='1796'> +7.2814374e+04 </wgt>
<wgt id='1797'> +7.2864072e+04 </wgt>
<wgt id='1798'> +7.2876250e+04 </wgt>
<wgt id='1799'> +7.3458884e+04 </wgt>
<wgt id='1800'> +7.3406136e+04 </wgt>
<wgt id='1801'> +7.3398068e+04 </wgt>
<wgt id='1802'> +7.3329677e+04 </wgt>
<wgt id='1803'> +7.3116266e+04 </wgt>
<wgt id='1804'> +7.2485720e+04 </wgt>
<wgt id='1805'> +7.2328896e+04 </wgt>
<wgt id='1806'> +7.2785941e+04 </wgt>
<wgt id='1807'> +7.2859988e+04 </wgt>
<wgt id='1808'> +7.2904115e+04 </wgt>
<wgt id='1809'> +7.2157599e+04 </wgt>
<wgt id='1810'> +7.2654147e+04 </wgt>
<wgt id='1811'> +7.2687842e+04 </wgt>
<wgt id='1812'> +7.2692731e+04 </wgt>
<wgt id='1813'> +7.1975763e+04 </wgt>
<wgt id='1814'> +7.2836537e+04 </wgt>
<wgt id='1815'> +7.2699484e+04 </wgt>
<wgt id='1816'> +7.2774397e+04 </wgt>
<wgt id='1817'> +7.2671085e+04 </wgt>
<wgt id='1818'> +7.2835222e+04 </wgt>
<wgt id='1819'> +7.2864912e+04 </wgt>
<wgt id='1820'> +7.2718922e+04 </wgt>
<wgt id='1821'> +7.2649782e+04 </wgt>
<wgt id='1822'> +7.2821445e+04 </wgt>
<wgt id='1823'> +7.2652689e+04 </wgt>
<wgt id='1824'> +7.3399202e+04 </wgt>
<wgt id='1825'> +7.2719796e+04 </wgt>
<wgt id='1826'> +7.3340103e+04 </wgt>
<wgt id='1827'> +7.4034353e+04 </wgt>
<wgt id='1828'> +7.4165054e+04 </wgt>
<wgt id='1829'> +7.3888299e+04 </wgt>
<wgt id='1830'> +7.4031483e+04 </wgt>
<wgt id='1831'> +7.4020859e+04 </wgt>
<wgt id='1832'> +7.4103232e+04 </wgt>
<wgt id='1833'> +7.3949480e+04 </wgt>
<wgt id='1834'> +7.3722090e+04 </wgt>
<wgt id='1835'> +7.4316690e+04 </wgt>
<wgt id='1836'> +7.4278379e+04 </wgt>
<wgt id='1837'> +7.3765680e+04 </wgt>
<wgt id='1838'> +7.4152078e+04 </wgt>
<wgt id='1839'> +7.3877927e+04 </wgt>
<wgt id='1840'> +7.3887627e+04 </wgt>
<wgt id='1841'> +7.4170050e+04 </wgt>
<wgt id='1842'> +7.4074675e+04 </wgt>
<wgt id='1843'> +7.4149101e+04 </wgt>
<wgt id='1844'> +7.3754616e+04 </wgt>
<wgt id='1845'> +7.4275978e+04 </wgt>
<wgt id='1846'> +7.3432126e+04 </wgt>
<wgt id='1847'> +7.4552682e+04 </wgt>
<wgt id='1848'> +7.4025012e+04 </wgt>
<wgt id='1849'> +7.3927401e+04 </wgt>
<wgt id='1850'> +7.4583249e+04 </wgt>
<wgt id='1851'> +7.3484245e+04 </wgt>
<wgt id='1852'> +7.4865667e+04 </wgt>
<wgt id='1853'> +7.3127699e+04 </wgt>
<wgt id='1854'> +7.4725854e+04 </wgt>
<wgt id='1855'> +7.3412793e+04 </wgt>
<wgt id='1856'> +7.2105056e+04 </wgt>
<wgt id='1857'> +7.2094429e+04 </wgt>
<wgt id='1858'> +7.2023016e+04 </wgt>
<wgt id='1859'> +7.2091938e+04 </wgt>
<wgt id='1860'> +7.2106487e+04 </wgt>
<wgt id='1861'> +7.2148218e+04 </wgt>
<wgt id='1862'> +7.1752913e+04 </wgt>
<wgt id='1863'> +7.2188085e+04 </wgt>
<wgt id='1864'> +7.1995933e+04 </wgt>
<wgt id='1865'> +7.1874890e+04 </wgt>
<wgt id='1866'> +7.2052585e+04 </wgt>
<wgt id='1867'> +7.2062360e+04 </wgt>
<wgt id='1868'> +7.2153576e+04 </wgt>
<wgt id='1869'> +7.2221020e+04 </wgt>
<wgt id='1870'> +7.1933190e+04 </wgt>
<wgt id='1871'> +7.1996801e+04 </wgt>
<wgt id='1872'> +7.1916219e+04 </wgt>
<wgt id='1873'> +7.2064653e+04 </wgt>
<wgt id='1874'> +7.1968765e+04 </wgt>
<wgt id='1875'> +7.2186601e+04 </wgt>
<wgt id='1876'> +7.2005093e+04 </wgt>
<wgt id='1877'> +7.1761652e+04 </wgt>
<wgt id='1878'> +7.2026097e+04 </wgt>
<wgt id='1879'> +7.2605064e+04 </wgt>
<wgt id='1880'> +7.2417853e+04 </wgt>
<wgt id='1881'> +7.2040175e+04 </wgt>
<wgt id='1882'> +7.2030869e+04 </wgt>
<wgt id='1883'> +7.2319595e+04 </wgt>
<wgt id='1884'> +7.1355822e+04 </wgt>
<wgt id='1885'> +7.1529391e+04 </wgt>
<wgt id='1886'> +7.7731539e+04 </wgt>
<wgt id='1887'> +7.7856615e+04 </wgt>
<wgt id='1888'> +6.6848246e+04 </wgt>
<wgt id='1889'> +7.4447895e+04 </wgt>
</rwgt>
</event>
<event npLO=" -1 " npNLO=" 0 ">
 6      1 +7.4519530e+04 4.04654690e+01 7.55820760e-03 1.16332830e-01
       21 -1    0    0  502  501 +0.0000000000e+00 +0.0000000000e+00 +8.0827227785e+01 8.0827227785e+01 0.0000000000e+00 0.0000e+00 -1.0000e+00
        1 -1    0    0  501    0 +0.0000000000e+00 +0.0000000000e+00 -7.9731580521e+01 7.9731580521e+01 0.0000000000e+00 0.0000e+00 -1.0000e+00
      -24  2    1    2    0    0 +5.5202663272e+01 +2.1143323800e+01 +1.0016081438e+01 1.0077629983e+02 8.1001028059e+01 0.0000e+00 0.0000e+00
       11  1    3    3    0    0 +3.8844938840e+01 -2.8352699871e+01 +3.1136647007e+00 4.8192320667e+01 0.0000000000e+00 0.0000e+00 -1.0000e+00
      -12  1    3    3    0    0 +1.6357724432e+01 +4.9496023671e+01 +6.9024167373e+00 5.2583979164e+01 0.0000000000e+00 0.0000e+00 1.0000e+00
        2  1    1    2  502    0 -5.5202663272e+01 -2.1143323800e+01 -8.9204341743e+00 5.9782508475e+01 0.0000000000e+00 0.0000e+00 -1.0000e+00
#aMCatNLO 2  0  0  1  2 0.90990827E+02 0.00000000E+00 -9  5  0 0.00000000E+00 0.00000000E+00 0.00000000E+00 0.00000000E+00 0.00000000E+00
<rwgt>
<wgt id='1001'> +7.4519530e+04 </wgt>
<wgt id='1002'> +6.7563916e+04 </wgt>
<wgt id='1003'> +8.3118826e+04 </wgt>
<wgt id='1004'> +7.8306452e+04 </wgt>
<wgt id='1005'> +7.0997367e+04 </wgt>
<wgt id='1006'> +8.7342744e+04 </wgt>
<wgt id='1007'> +6.9602700e+04 </wgt>
<wgt id='1008'> +6.3106019e+04 </wgt>
<wgt id='1009'> +7.7634610e+04 </wgt>
<wgt id='1010'> +7.4519530e+04 </wgt>
<wgt id='1011'> +7.4560098e+04 </wgt>
<wgt id='1012'> +7.4388274e+04 </wgt>
<wgt id='1013'> +7.4347722e+04 </wgt>
<wgt id='1014'> +7.4721169e+04 </wgt>
<wgt id='1015'> +7.4562330e+04 </wgt>
<wgt id='1016'> +7.4547488e+04 </wgt>
<wgt id='1017'> +7.4799141e+04 </wgt>
<wgt id='1018'> +7.4712650e+04 </wgt>
<wgt id='1019'> +7.4640623e+04 </wgt>
<wgt id='1020'> +7.4347993e+04 </wgt>
<wgt id='1021'> +7.4097772e+04 </wgt>
<wgt id='1022'> +7.4775493e+04 </wgt>
<wgt id='1023'> +7.4489597e+04 </wgt>
<wgt id='1024'> +7.4594000e+04 </wgt>
<wgt id='1025'> +7.4980081e+04 </wgt>
<wgt id='1026'> +7.4149770e+04 </wgt>
<wgt id='1027'> +7.4351265e+04 </wgt>
<wgt id='1028'> +7.4383052e+04 </wgt>
<wgt id='1029'> +7.4868763e+04 </wgt>
<wgt id='1030'> +7.4830778e+04 </wgt>
<wgt id='1031'> +7.4667093e+04 </wgt>
<wgt id='1032'> +7.4695371e+04 </wgt>
<wgt id='1033'> +7.4345198e+04 </wgt>
<wgt id='1034'> +7.4474404e+04 </wgt>
<wgt id='1035'> +7.4132129e+04 </wgt>
<wgt id='1036'> +7.4365440e+04 </wgt>
<wgt id='1037'> +7.5110685e+04 </wgt>
<wgt id='1038'> +7.4676761e+04 </wgt>
<wgt id='1039'> +7.4316279e+04 </wgt>
<wgt id='1040'> +7.4401269e+04 </wgt>
<wgt id='1041'> +7.4577529e+04 </wgt>
<wgt id='1042'> +7.4402654e+04 </wgt>
<wgt id='1043'> +7.4686467e+04 </wgt>
<wgt id='1044'> +7.4595248e+04 </wgt>
<wgt id='1045'> +7.4587614e+04 </wgt>
<wgt id='1046'> +7.4572033e+04 </wgt>
<wgt id='1047'> +7.4172492e+04 </wgt>
<wgt id='1048'> +7.4496497e+04 </wgt>
<wgt id='1049'> +7.4708397e+04 </wgt>
<wgt id='1050'> +7.4360689e+04 </wgt>
<wgt id='1051'> +7.4615717e+04 </wgt>
<wgt id='1052'> +7.4535263e+04 </wgt>
<wgt id='1053'> +7.4265343e+04 </wgt>
<wgt id='1054'> +7.4366577e+04 </wgt>
<wgt id='1055'> +7.4499343e+04 </wgt>
<wgt id='1056'> +7.4771005e+04 </wgt>
<wgt id='1057'> +7.4405694e+04 </wgt>
<wgt id='1058'> +7.4574073e+04 </wgt>
<wgt id='1059'> +7.4429226e+04 </wgt>
<wgt id='1060'> +7.4502065e+04 </wgt>
<wgt id='1061'> +7.4486107e+04 </wgt>
<wgt id='1062'> +7.4522333e+04 </wgt>
<wgt id='1063'> +7.4517284e+04 </wgt>
<wgt id='1064'> +7.4590942e+04 </wgt>
<wgt id='1065'> +7.4612558e+04 </wgt>
<wgt id='1066'> +7.4586584e+04 </wgt>
<wgt id='1067'> +7.4548366e+04 </wgt>
<wgt id='1068'> +7.4553445e+04 </wgt>
<wgt id='1069'> +7.4510439e+04 </wgt>
<wgt id='1070'> +7.4520919e+04 </wgt>
<wgt id='1071'> +7.4553338e+04 </wgt>
<wgt id='1072'> +7.4575231e+04 </wgt>
<wgt id='1073'> +7.4521088e+04 </wgt>
<wgt id='1074'> +7.4599905e+04 </wgt>
<wgt id='1075'> +7.4524895e+04 </wgt>
<wgt id='1076'> +7.4568886e+04 </wgt>
<wgt id='1077'> +7.4520817e+04 </wgt>
<wgt id='1078'> +7.4481748e+04 </wgt>
<wgt id='1079'> +7.4621716e+04 </wgt>
<wgt id='1080'> +7.4573874e+04 </wgt>
<wgt id='1081'> +7.4554725e+04 </wgt>
<wgt id='1082'> +7.4519704e+04 </wgt>
<wgt id='1083'> +7.4539448e+04 </wgt>
<wgt id='1084'> +7.4572208e+04 </wgt>
<wgt id='1085'> +7.4466299e+04 </wgt>
<wgt id='1086'> +7.4549952e+04 </wgt>
<wgt id='1087'> +7.4553987e+04 </wgt>
<wgt id='1088'> +7.4527907e+04 </wgt>
<wgt id='1089'> +7.4559004e+04 </wgt>
<wgt id='1090'> +7.4523271e+04 </wgt>
<wgt id='1091'> +7.4504663e+04 </wgt>
<wgt id='1092'> +7.4500178e+04 </wgt>
<wgt id='1093'> +7.4529784e+04 </wgt>
<wgt id='1094'> +7.4512880e+04 </wgt>
<wgt id='1095'> +7.4508528e+04 </wgt>
<wgt id='1096'> +7.4550331e+04 </wgt>
<wgt id='1097'> +7.4507806e+04 </wgt>
<wgt id='1098'> +7.4526585e+04 </wgt>
<wgt id='1099'> +7.4521601e+04 </wgt>
<wgt id='1100'> +7.4500812e+04 </wgt>
<wgt id='1101'> +7.4483947e+04 </wgt>
<wgt id='1102'> +7.4530897e+04 </wgt>
<wgt id='1103'> +7.4535084e+04 </wgt>
<wgt id='1104'> +7.4501165e+04 </wgt>
<wgt id='1105'> +7.4554724e+04 </wgt>
<wgt id='1106'> +7.4504958e+04 </wgt>
<wgt id='1107'> +7.4511387e+04 </wgt>
<wgt id='1108'> +7.4479243e+04 </wgt>
<wgt id='1109'> +7.4536641e+04 </wgt>
<wgt id='1110'> +7.4519531e+04 </wgt>
<wgt id='1111'> +7.3422506e+04 </wgt>
<wgt id='1112'> +7.5158441e+04 </wgt>
<wgt id='1113'> +7.4519531e+04 </wgt>
<wgt id='1114'> +7.6688957e+04 </wgt>
<wgt id='1115'> +7.4609993e+04 </wgt>
<wgt id='1116'> +7.1775811e+04 </wgt>
<wgt id='1117'> +7.3056808e+04 </wgt>
<wgt id='1118'> +7.5446114e+04 </wgt>
<wgt id='1119'> +7.7319564e+04 </wgt>
<wgt id='1120'> +7.5047390e+04 </wgt>
<wgt id='1121'> +7.2688019e+04 </wgt>
<wgt id='1122'> +7.4211766e+04 </wgt>
<wgt id='1123'> +7.5267993e+04 </wgt>
<wgt id='1124'> +7.4554059e+04 </wgt>
<wgt id='1125'> +7.2547917e+04 </wgt>
<wgt id='1126'> +7.4124626e+04 </wgt>
<wgt id='1127'> +7.2239367e+04 </wgt>
<wgt id='1128'> +7.6593412e+04 </wgt>
<wgt id='1129'> +7.6394957e+04 </wgt>
<wgt id='1130'> +7.7312980e+04 </wgt>
<wgt id='1131'> +7.3577978e+04 </wgt>
<wgt id='1132'> +7.4699638e+04 </wgt>
<wgt id='1133'> +7.3688314e+04 </wgt>
<wgt id='1134'> +7.2550514e+04 </wgt>
<wgt id='1135'> +7.4989003e+04 </wgt>
<wgt id='1136'> +7.6910794e+04 </wgt>
<wgt id='1137'> +7.3485195e+04 </wgt>
<wgt id='1138'> +7.2140877e+04 </wgt>
<wgt id='1139'> +7.4422606e+04 </wgt>
<wgt id='1140'> +7.6660982e+04 </wgt>
<wgt id='1141'> +7.3699235e+04 </wgt>
<wgt id='1142'> +7.6371725e+04 </wgt>
<wgt id='1143'> +7.6216312e+04 </wgt>
<wgt id='1144'> +7.4295719e+04 </wgt>
<wgt id='1145'> +7.3643263e+04 </wgt>
<wgt id='1146'> +7.4750616e+04 </wgt>
<wgt id='1147'> +7.2417761e+04 </wgt>
<wgt id='1148'> +7.6628038e+04 </wgt>
<wgt id='1149'> +7.3499229e+04 </wgt>
<wgt id='1150'> +7.5557716e+04 </wgt>
<wgt id='1151'> +7.3885937e+04 </wgt>
<wgt id='1152'> +7.3816887e+04 </wgt>
<wgt id='1153'> +7.2357910e+04 </wgt>
<wgt id='1154'> +7.3868856e+04 </wgt>
<wgt id='1155'> +7.3520810e+04 </wgt>
<wgt id='1156'> +7.5605906e+04 </wgt>
<wgt id='1157'> +7.4778901e+04 </wgt>
<wgt id='1158'> +7.5793360e+04 </wgt>
<wgt id='1159'> +7.5093491e+04 </wgt>
<wgt id='1160'> +7.1865227e+04 </wgt>
<wgt id='1161'> +7.1994850e+04 </wgt>
<wgt id='1162'> +7.6658744e+04 </wgt>
<wgt id='1163'> +7.6733342e+04 </wgt>
<wgt id='1164'> +7.5143752e+04 </wgt>
<wgt id='1165'> +7.4091555e+04 </wgt>
<wgt id='1166'> +7.4039795e+04 </wgt>
<wgt id='1167'> +7.5805085e+04 </wgt>
<wgt id='1168'> +7.1839311e+04 </wgt>
<wgt id='1169'> +7.5663590e+04 </wgt>
<wgt id='1170'> +7.6655737e+04 </wgt>
<wgt id='1171'> +7.3772058e+04 </wgt>
<wgt id='1172'> +7.5675091e+04 </wgt>
<wgt id='1173'> +7.4975050e+04 </wgt>
<wgt id='1174'> +7.4300476e+04 </wgt>
<wgt id='1175'> +7.5417122e+04 </wgt>
<wgt id='1176'> +7.4664331e+04 </wgt>
<wgt id='1177'> +7.1917126e+04 </wgt>
<wgt id='1178'> +7.4556898e+04 </wgt>
<wgt id='1179'> +7.3597874e+04 </wgt>
<wgt id='1180'> +7.4273518e+04 </wgt>
<wgt id='1181'> +7.6694364e+04 </wgt>
<wgt id='1182'> +7.4240267e+04 </wgt>
<wgt id='1183'> +7.3661291e+04 </wgt>
<wgt id='1184'> +7.5861849e+04 </wgt>
<wgt id='1185'> +7.9799679e+04 </wgt>
<wgt id='1186'> +7.3246666e+04 </wgt>
<wgt id='1187'> +7.3776493e+04 </wgt>
<wgt id='1188'> +7.3884341e+04 </wgt>
<wgt id='1189'> +7.5609446e+04 </wgt>
<wgt id='1190'> +7.2389886e+04 </wgt>
<wgt id='1191'> +7.4272942e+04 </wgt>
<wgt id='1192'> +7.4371903e+04 </wgt>
<wgt id='1193'> +7.3822992e+04 </wgt>
<wgt id='1194'> +7.3135818e+04 </wgt>
<wgt id='1195'> +7.6394957e+04 </wgt>
<wgt id='1196'> +7.3848563e+04 </wgt>
<wgt id='1197'> +7.4169882e+04 </wgt>
<wgt id='1198'> +7.3587933e+04 </wgt>
<wgt id='1199'> +7.5797512e+04 </wgt>
<wgt id='1200'> +7.5434113e+04 </wgt>
<wgt id='1201'> +7.5610540e+04 </wgt>
<wgt id='1202'> +7.2378264e+04 </wgt>
<wgt id='1203'> +7.3686783e+04 </wgt>
<wgt id='1204'> +7.4194894e+04 </wgt>
<wgt id='1205'> +7.4308781e+04 </wgt>
<wgt id='1206'> +7.4881608e+04 </wgt>
<wgt id='1207'> +7.7035279e+04 </wgt>
<wgt id='1208'> +7.3796685e+04 </wgt>
<wgt id='1209'> +7.3448103e+04 </wgt>
<wgt id='1210'> +7.3893492e+04 </wgt>
<wgt id='1211'> +7.4360236e+04 </wgt>
<wgt id='1212'> +7.2196477e+04 </wgt>
<wgt id='1213'> +7.5558380e+04 </wgt>
<wgt id='1214'> +7.4433195e+04 </wgt>
<wgt id='1215'> +7.1363059e+04 </wgt>
<wgt id='1216'> +7.1683171e+04 </wgt>
<wgt id='1217'> +7.2256022e+04 </wgt>
<wgt id='1218'> +7.3224847e+04 </wgt>
<wgt id='1219'> +7.4416849e+04 </wgt>
<wgt id='1220'> +7.4800147e+04 </wgt>
<wgt id='1221'> +7.5829923e+04 </wgt>
<wgt id='1222'> +7.6171577e+04 </wgt>
<wgt id='1223'> +7.4281955e+04 </wgt>
<wgt id='1224'> +7.4366030e+04 </wgt>
<wgt id='1225'> +7.4257612e+04 </wgt>
<wgt id='1226'> +7.4386601e+04 </wgt>
<wgt id='1227'> +7.4517311e+04 </wgt>
<wgt id='1228'> +7.4562747e+04 </wgt>
<wgt id='1229'> +7.4132140e+04 </wgt>
<wgt id='1230'> +7.4543105e+04 </wgt>
<wgt id='1231'> +7.4302960e+04 </wgt>
<wgt id='1232'> +7.4466085e+04 </wgt>
<wgt id='1233'> +7.3816027e+04 </wgt>
<wgt id='1234'> +7.4247157e+04 </wgt>
<wgt id='1235'> +7.4658729e+04 </wgt>
<wgt id='1236'> +7.4166956e+04 </wgt>
<wgt id='1237'> +7.4561948e+04 </wgt>
<wgt id='1238'> +7.4138862e+04 </wgt>
<wgt id='1239'> +7.4778514e+04 </wgt>
<wgt id='1240'> +7.4280661e+04 </wgt>
<wgt id='1241'> +7.4538382e+04 </wgt>
<wgt id='1242'> +7.4045652e+04 </wgt>
<wgt id='1243'> +7.3931588e+04 </wgt>
<wgt id='1244'> +7.4615850e+04 </wgt>
<wgt id='1245'> +7.4272615e+04 </wgt>
<wgt id='1246'> +7.4048840e+04 </wgt>
<wgt id='1247'> +7.4825962e+04 </wgt>
<wgt id='1248'> +7.4080442e+04 </wgt>
<wgt id='1249'> +7.4354450e+04 </wgt>
<wgt id='1250'> +7.4002206e+04 </wgt>
<wgt id='1251'> +7.4205010e+04 </wgt>
<wgt id='1252'> +7.4773161e+04 </wgt>
<wgt id='1253'> +7.4643851e+04 </wgt>
<wgt id='1254'> +7.3842619e+04 </wgt>
<wgt id='1255'> +7.4526835e+04 </wgt>
<wgt id='1256'> +7.4098784e+04 </wgt>
<wgt id='1257'> +7.4139350e+04 </wgt>
<wgt id='1258'> +7.4350989e+04 </wgt>
<wgt id='1259'> +7.4255043e+04 </wgt>
<wgt id='1260'> +7.4144075e+04 </wgt>
<wgt id='1261'> +7.4223274e+04 </wgt>
<wgt id='1262'> +7.4302961e+04 </wgt>
<wgt id='1263'> +7.4224749e+04 </wgt>
<wgt id='1264'> +7.4391290e+04 </wgt>
<wgt id='1265'> +7.4163984e+04 </wgt>
<wgt id='1266'> +7.4253827e+04 </wgt>
<wgt id='1267'> +7.4257373e+04 </wgt>
<wgt id='1268'> +7.4215384e+04 </wgt>
<wgt id='1269'> +7.4328389e+04 </wgt>
<wgt id='1270'> +7.4321638e+04 </wgt>
<wgt id='1271'> +7.4305540e+04 </wgt>
<wgt id='1272'> +7.4294093e+04 </wgt>
<wgt id='1273'> +7.4304143e+04 </wgt>
<wgt id='1274'> +7.4264778e+04 </wgt>
<wgt id='1275'> +7.4194251e+04 </wgt>
<wgt id='1276'> +7.4248879e+04 </wgt>
<wgt id='1277'> +7.4192837e+04 </wgt>
<wgt id='1278'> +7.4309229e+04 </wgt>
<wgt id='1279'> +7.4297595e+04 </wgt>
<wgt id='1280'> +7.4202362e+04 </wgt>
<wgt id='1281'> +7.4256438e+04 </wgt>
<wgt id='1282'> +7.4266676e+04 </wgt>
<wgt id='1283'> +7.4262264e+04 </wgt>
<wgt id='1284'> +7.4337854e+04 </wgt>
<wgt id='1285'> +7.4431794e+04 </wgt>
<wgt id='1286'> +7.4404631e+04 </wgt>
<wgt id='1287'> +7.4295253e+04 </wgt>
<wgt id='1288'> +7.4311891e+04 </wgt>
<wgt id='1289'> +7.4337406e+04 </wgt>
<wgt id='1290'> +7.4270899e+04 </wgt>
<wgt id='1291'> +7.4260022e+04 </wgt>
<wgt id='1292'> +7.4210312e+04 </wgt>
<wgt id='1293'> +7.4322208e+04 </wgt>
<wgt id='1294'> +7.4287058e+04 </wgt>
<wgt id='1295'> +7.4345968e+04 </wgt>
<wgt id='1296'> +7.4292471e+04 </wgt>
<wgt id='1297'> +7.4301112e+04 </wgt>
<wgt id='1298'> +7.4311250e+04 </wgt>
<wgt id='1299'> +7.4193585e+04 </wgt>
<wgt id='1300'> +7.4336499e+04 </wgt>
<wgt id='1301'> +7.4264716e+04 </wgt>
<wgt id='1302'> +7.4285842e+04 </wgt>
<wgt id='1303'> +7.4267305e+04 </wgt>
<wgt id='1304'> +7.4212140e+04 </wgt>
<wgt id='1305'> +7.4287088e+04 </wgt>
<wgt id='1306'> +7.4261458e+04 </wgt>
<wgt id='1307'> +7.4326270e+04 </wgt>
<wgt id='1308'> +7.4333263e+04 </wgt>
<wgt id='1309'> +7.4248253e+04 </wgt>
<wgt id='1310'> +7.4268093e+04 </wgt>
<wgt id='1311'> +7.4290093e+04 </wgt>
<wgt id='1312'> +7.4292328e+04 </wgt>
<wgt id='1313'> +7.4278258e+04 </wgt>
<wgt id='1314'> +7.4228188e+04 </wgt>
<wgt id='1315'> +7.4326432e+04 </wgt>
<wgt id='1316'> +7.4275716e+04 </wgt>
<wgt id='1317'> +7.4316119e+04 </wgt>
<wgt id='1318'> +7.4246970e+04 </wgt>
<wgt id='1319'> +7.4282160e+04 </wgt>
<wgt id='1320'> +7.4255877e+04 </wgt>
<wgt id='1321'> +7.4309244e+04 </wgt>
<wgt id='1322'> +7.4271524e+04 </wgt>
<wgt id='1323'> +7.4285414e+04 </wgt>
<wgt id='1324'> +7.3554855e+04 </wgt>
<wgt id='1325'> +7.5213218e+04 </wgt>
<wgt id='1326'> +7.2665077e+04 </wgt>
<wgt id='1327'> +7.1587422e+04 </wgt>
<wgt id='1328'> +7.4253846e+04 </wgt>
<wgt id='1329'> +7.3404768e+04 </wgt>
<wgt id='1330'> +7.5842972e+04 </wgt>
<wgt id='1331'> +7.3306466e+04 </wgt>
<wgt id='1332'> +7.5665731e+04 </wgt>
<wgt id='1333'> +7.4796698e+04 </wgt>
<wgt id='1334'> +7.2548378e+04 </wgt>
<wgt id='1335'> +7.2723909e+04 </wgt>
<wgt id='1336'> +7.4248734e+04 </wgt>
<wgt id='1337'> +7.4978151e+04 </wgt>
<wgt id='1338'> +7.4337645e+04 </wgt>
<wgt id='1339'> +7.4046674e+04 </wgt>
<wgt id='1340'> +7.1731817e+04 </wgt>
<wgt id='1341'> +7.3444680e+04 </wgt>
<wgt id='1342'> +7.5334098e+04 </wgt>
<wgt id='1343'> +7.5176527e+04 </wgt>
<wgt id='1344'> +7.4497347e+04 </wgt>
<wgt id='1345'> +7.4485980e+04 </wgt>
<wgt id='1346'> +7.3648710e+04 </wgt>
<wgt id='1347'> +7.5829708e+04 </wgt>
<wgt id='1348'> +7.1006275e+04 </wgt>
<wgt id='1349'> +7.4865214e+04 </wgt>
<wgt id='1350'> +7.4322725e+04 </wgt>
<wgt id='1351'> +7.4416866e+04 </wgt>
<wgt id='1352'> +7.4732949e+04 </wgt>
<wgt id='1353'> +7.6556610e+04 </wgt>
<wgt id='1354'> +7.4028987e+04 </wgt>
<wgt id='1355'> +7.4727320e+04 </wgt>
<wgt id='1356'> +7.5269665e+04 </wgt>
<wgt id='1357'> +7.3290970e+04 </wgt>
<wgt id='1358'> +7.5750411e+04 </wgt>
<wgt id='1359'> +7.4129333e+04 </wgt>
<wgt id='1360'> +7.6902450e+04 </wgt>
<wgt id='1361'> +7.6073966e+04 </wgt>
<wgt id='1362'> +7.6781897e+04 </wgt>
<wgt id='1363'> +7.4062114e+04 </wgt>
<wgt id='1364'> +7.4794205e+04 </wgt>
<wgt id='1365'> +7.3249499e+04 </wgt>
<wgt id='1366'> +7.4792754e+04 </wgt>
<wgt id='1367'> +7.6017615e+04 </wgt>
<wgt id='1368'> +7.4470611e+04 </wgt>
<wgt id='1369'> +7.3034305e+04 </wgt>
<wgt id='1370'> +7.2455113e+04 </wgt>
<wgt id='1371'> +7.4062847e+04 </wgt>
<wgt id='1372'> +7.6805322e+04 </wgt>
<wgt id='1373'> +7.3878723e+04 </wgt>
<wgt id='1374'> +7.4605119e+04 </wgt>
<wgt id='1375'> +7.4561843e+04 </wgt>
<wgt id='1376'> +7.2906467e+04 </wgt>
<wgt id='1377'> +7.5949977e+04 </wgt>
<wgt id='1378'> +7.3421200e+04 </wgt>
<wgt id='1379'> +7.4763114e+04 </wgt>
<wgt id='1380'> +7.4655934e+04 </wgt>
<wgt id='1381'> +7.5294009e+04 </wgt>
<wgt id='1382'> +7.2093258e+04 </wgt>
<wgt id='1383'> +7.3575171e+04 </wgt>
<wgt id='1384'> +7.4518579e+04 </wgt>
<wgt id='1385'> +7.0435933e+04 </wgt>
<wgt id='1386'> +7.5628192e+04 </wgt>
<wgt id='1387'> +7.4157584e+04 </wgt>
<wgt id='1388'> +7.4199460e+04 </wgt>
<wgt id='1389'> +7.5425667e+04 </wgt>
<wgt id='1390'> +6.8925532e+04 </wgt>
<wgt id='1391'> +7.2001848e+04 </wgt>
<wgt id='1392'> +7.4005157e+04 </wgt>
<wgt id='1393'> +7.3437796e+04 </wgt>
<wgt id='1394'> +7.3249499e+04 </wgt>
<wgt id='1395'> +7.4559991e+04 </wgt>
<wgt id='1396'> +7.6743438e+04 </wgt>
<wgt id='1397'> +7.5674830e+04 </wgt>
<wgt id='1398'> +7.5073445e+04 </wgt>
<wgt id='1399'> +7.4917100e+04 </wgt>
<wgt id='1400'> +7.6044987e+04 </wgt>
<wgt id='1401'> +7.4887001e+04 </wgt>
<wgt id='1402'> +7.5721548e+04 </wgt>
<wgt id='1403'> +7.4954585e+04 </wgt>
<wgt id='1404'> +7.6061844e+04 </wgt>
<wgt id='1405'> +7.1713019e+04 </wgt>
<wgt id='1406'> +7.4520992e+04 </wgt>
<wgt id='1407'> +7.5622121e+04 </wgt>
<wgt id='1408'> +7.5152714e+04 </wgt>
<wgt id='1409'> +7.3076241e+04 </wgt>
<wgt id='1410'> +7.4977944e+04 </wgt>
<wgt id='1411'> +7.3211104e+04 </wgt>
<wgt id='1412'> +7.5340801e+04 </wgt>
<wgt id='1413'> +7.4339448e+04 </wgt>
<wgt id='1414'> +7.0310331e+04 </wgt>
<wgt id='1415'> +7.0772809e+04 </wgt>
<wgt id='1416'> +7.3468887e+04 </wgt>
<wgt id='1417'> +7.4221723e+04 </wgt>
<wgt id='1418'> +7.6358215e+04 </wgt>
<wgt id='1419'> +7.4282081e+04 </wgt>
<wgt id='1420'> +7.0509499e+04 </wgt>
<wgt id='1421'> +7.4663991e+04 </wgt>
<wgt id='1422'> +7.4006315e+04 </wgt>
<wgt id='1423'> +7.2346167e+04 </wgt>
<wgt id='1424'> +7.2666813e+04 </wgt>
<wgt id='1425'> +7.5400474e+04 </wgt>
<wgt id='1426'> +7.4647640e+04 </wgt>
<wgt id='1427'> +7.4784795e+04 </wgt>
<wgt id='1428'> +7.5879782e+04 </wgt>
<wgt id='1429'> +7.3595652e+04 </wgt>
<wgt id='1430'> +7.4612372e+04 </wgt>
<wgt id='1431'> +7.4213773e+04 </wgt>
<wgt id='1432'> +7.4429264e+04 </wgt>
<wgt id='1433'> +7.3993576e+04 </wgt>
<wgt id='1434'> +7.4162555e+04 </wgt>
<wgt id='1435'> +7.4101424e+04 </wgt>
<wgt id='1436'> +7.3458156e+04 </wgt>
<wgt id='1437'> +7.4541852e+04 </wgt>
<wgt id='1438'> +7.4378367e+04 </wgt>
<wgt id='1439'> +7.3133390e+04 </wgt>
<wgt id='1440'> +7.4284395e+04 </wgt>
<wgt id='1441'> +7.4071708e+04 </wgt>
<wgt id='1442'> +7.4249501e+04 </wgt>
<wgt id='1443'> +7.4123778e+04 </wgt>
<wgt id='1444'> +7.4119176e+04 </wgt>
<wgt id='1445'> +7.4095736e+04 </wgt>
<wgt id='1446'> +7.4263242e+04 </wgt>
<wgt id='1447'> +7.4285886e+04 </wgt>
<wgt id='1448'> +7.4179182e+04 </wgt>
<wgt id='1449'> +7.4227469e+04 </wgt>
<wgt id='1450'> +7.4214486e+04 </wgt>
<wgt id='1451'> +7.4208214e+04 </wgt>
<wgt id='1452'> +7.4027470e+04 </wgt>
<wgt id='1453'> +7.4147247e+04 </wgt>
<wgt id='1454'> +7.4266612e+04 </wgt>
<wgt id='1455'> +7.4299445e+04 </wgt>
<wgt id='1456'> +7.4251211e+04 </wgt>
<wgt id='1457'> +7.4159802e+04 </wgt>
<wgt id='1458'> +7.4196192e+04 </wgt>
<wgt id='1459'> +7.4244189e+04 </wgt>
<wgt id='1460'> +7.4245405e+04 </wgt>
<wgt id='1461'> +7.4217589e+04 </wgt>
<wgt id='1462'> +7.4208291e+04 </wgt>
<wgt id='1463'> +7.4168686e+04 </wgt>
<wgt id='1464'> +7.4201958e+04 </wgt>
<wgt id='1465'> +7.4175625e+04 </wgt>
<wgt id='1466'> +7.4185951e+04 </wgt>
<wgt id='1467'> +7.4218223e+04 </wgt>
<wgt id='1468'> +7.4274995e+04 </wgt>
<wgt id='1469'> +7.4216953e+04 </wgt>
<wgt id='1470'> +7.4223454e+04 </wgt>
<wgt id='1471'> +7.4233989e+04 </wgt>
<wgt id='1472'> +7.4251956e+04 </wgt>
<wgt id='1473'> +7.4179353e+04 </wgt>
<wgt id='1474'> +7.4199217e+04 </wgt>
<wgt id='1475'> +7.4219414e+04 </wgt>
<wgt id='1476'> +7.4195188e+04 </wgt>
<wgt id='1477'> +7.4213138e+04 </wgt>
<wgt id='1478'> +7.4189828e+04 </wgt>
<wgt id='1479'> +7.4207100e+04 </wgt>
<wgt id='1480'> +7.4196616e+04 </wgt>
<wgt id='1481'> +7.4229737e+04 </wgt>
<wgt id='1482'> +7.3595652e+04 </wgt>
<wgt id='1483'> +7.4612372e+04 </wgt>
<wgt id='1484'> +7.3518574e+04 </wgt>
<wgt id='1485'> +7.4229095e+04 </wgt>
<wgt id='1486'> +7.3970043e+04 </wgt>
<wgt id='1487'> +7.3136327e+04 </wgt>
<wgt id='1488'> +7.4935259e+04 </wgt>
<wgt id='1489'> +7.3376032e+04 </wgt>
<wgt id='1490'> +7.1261323e+04 </wgt>
<wgt id='1491'> +7.1510464e+04 </wgt>
<wgt id='1492'> +7.3743656e+04 </wgt>
<wgt id='1493'> +7.3709038e+04 </wgt>
<wgt id='1494'> +7.3246884e+04 </wgt>
<wgt id='1495'> +7.2089801e+04 </wgt>
<wgt id='1496'> +7.3269611e+04 </wgt>
<wgt id='1497'> +7.1407301e+04 </wgt>
<wgt id='1498'> +7.4403982e+04 </wgt>
<wgt id='1499'> +7.3557820e+04 </wgt>
<wgt id='1500'> +7.0409372e+04 </wgt>
<wgt id='1501'> +7.2889750e+04 </wgt>
<wgt id='1502'> +7.3844920e+04 </wgt>
<wgt id='1503'> +7.2528889e+04 </wgt>
<wgt id='1504'> +7.3448870e+04 </wgt>
<wgt id='1505'> +7.3348995e+04 </wgt>
<wgt id='1506'> +7.3862654e+04 </wgt>
<wgt id='1507'> +7.3786449e+04 </wgt>
<wgt id='1508'> +7.1564263e+04 </wgt>
<wgt id='1509'> +7.3871828e+04 </wgt>
<wgt id='1510'> +7.4237355e+04 </wgt>
<wgt id='1511'> +7.4142385e+04 </wgt>
<wgt id='1512'> +7.3660630e+04 </wgt>
<wgt id='1513'> +7.2328534e+04 </wgt>
<wgt id='1514'> +7.3875359e+04 </wgt>
<wgt id='1515'> +7.4054267e+04 </wgt>
<wgt id='1516'> +7.3967970e+04 </wgt>
<wgt id='1517'> +7.3486041e+04 </wgt>
<wgt id='1518'> +7.3160366e+04 </wgt>
<wgt id='1519'> +7.3042681e+04 </wgt>
<wgt id='1520'> +7.4175526e+04 </wgt>
<wgt id='1521'> +7.4356182e+04 </wgt>
<wgt id='1522'> +7.3778084e+04 </wgt>
<wgt id='1523'> +7.3754399e+04 </wgt>
<wgt id='1524'> +7.4654141e+04 </wgt>
<wgt id='1525'> +7.3641819e+04 </wgt>
<wgt id='1526'> +7.2855893e+04 </wgt>
<wgt id='1527'> +7.4005900e+04 </wgt>
<wgt id='1528'> +7.3341296e+04 </wgt>
<wgt id='1529'> +7.3383796e+04 </wgt>
<wgt id='1530'> +7.2742755e+04 </wgt>
<wgt id='1531'> +7.3976604e+04 </wgt>
<wgt id='1532'> +7.1885412e+04 </wgt>
<wgt id='1533'> +7.4610849e+04 </wgt>
<wgt id='1534'> +7.3063757e+04 </wgt>
<wgt id='1535'> +7.4017933e+04 </wgt>
<wgt id='1536'> +7.3531725e+04 </wgt>
<wgt id='1537'> +7.4029647e+04 </wgt>
<wgt id='1538'> +7.3551051e+04 </wgt>
<wgt id='1539'> +7.4325878e+04 </wgt>
<wgt id='1540'> +7.4221622e+04 </wgt>
<wgt id='1541'> +7.4309254e+04 </wgt>
<wgt id='1542'> +7.3218897e+04 </wgt>
<wgt id='1543'> +7.3993645e+04 </wgt>
<wgt id='1544'> +7.3593408e+04 </wgt>
<wgt id='1545'> +7.4417435e+04 </wgt>
<wgt id='1546'> +7.3168603e+04 </wgt>
<wgt id='1547'> +7.3830676e+04 </wgt>
<wgt id='1548'> +7.4290807e+04 </wgt>
<wgt id='1549'> +7.4035987e+04 </wgt>
<wgt id='1550'> +7.4449779e+04 </wgt>
<wgt id='1551'> +7.4417378e+04 </wgt>
<wgt id='1552'> +7.3525289e+04 </wgt>
<wgt id='1553'> +7.4325693e+04 </wgt>
<wgt id='1554'> +7.4293860e+04 </wgt>
<wgt id='1555'> +7.3075724e+04 </wgt>
<wgt id='1556'> +7.2558251e+04 </wgt>
<wgt id='1557'> +7.3620788e+04 </wgt>
<wgt id='1558'> +7.3709837e+04 </wgt>
<wgt id='1559'> +7.4927878e+04 </wgt>
<wgt id='1560'> +7.5220008e+04 </wgt>
<wgt id='1561'> +7.3946902e+04 </wgt>
<wgt id='1562'> +7.3925262e+04 </wgt>
<wgt id='1563'> +7.4317523e+04 </wgt>
<wgt id='1564'> +7.4401462e+04 </wgt>
<wgt id='1565'> +7.4195270e+04 </wgt>
<wgt id='1566'> +7.1667294e+04 </wgt>
<wgt id='1567'> +7.2432578e+04 </wgt>
<wgt id='1568'> +7.2835473e+04 </wgt>
<wgt id='1569'> +7.3854179e+04 </wgt>
<wgt id='1570'> +7.2682668e+04 </wgt>
<wgt id='1571'> +7.3575156e+04 </wgt>
<wgt id='1572'> +7.4879566e+04 </wgt>
<wgt id='1573'> +7.2990596e+04 </wgt>
<wgt id='1574'> +7.2132081e+04 </wgt>
<wgt id='1575'> +7.3462803e+04 </wgt>
<wgt id='1576'> +7.4468815e+04 </wgt>
<wgt id='1577'> +7.3241603e+04 </wgt>
<wgt id='1578'> +7.3570035e+04 </wgt>
<wgt id='1579'> +7.1732039e+04 </wgt>
<wgt id='1580'> +7.3941544e+04 </wgt>
<wgt id='1581'> +7.4373560e+04 </wgt>
<wgt id='1582'> +7.5607092e+04 </wgt>
<wgt id='1583'> +7.2703267e+04 </wgt>
<wgt id='1584'> +7.0375629e+04 </wgt>
<wgt id='1585'> +7.1834012e+04 </wgt>
<wgt id='1586'> +6.8035811e+04 </wgt>
<wgt id='1587'> +7.3191429e+04 </wgt>
<wgt id='1588'> +7.3595652e+04 </wgt>
<wgt id='1589'> +7.3806599e+04 </wgt>
<wgt id='1590'> +7.4080307e+04 </wgt>
<wgt id='1591'> +7.4612372e+04 </wgt>
<wgt id='1592'> +7.4690506e+04 </wgt>
<wgt id='1593'> +7.2969472e+04 </wgt>
<wgt id='1594'> +7.2602052e+04 </wgt>
<wgt id='1595'> +7.2357052e+04 </wgt>
<wgt id='1596'> +7.3063205e+04 </wgt>
<wgt id='1597'> +7.2874108e+04 </wgt>
<wgt id='1598'> +7.1637273e+04 </wgt>
<wgt id='1599'> +7.3976069e+04 </wgt>
<wgt id='1600'> +7.2638783e+04 </wgt>
<wgt id='1601'> +7.3070383e+04 </wgt>
<wgt id='1602'> +7.1556410e+04 </wgt>
<wgt id='1603'> +7.4202249e+04 </wgt>
<wgt id='1604'> +7.3160077e+04 </wgt>
<wgt id='1605'> +7.3207517e+04 </wgt>
<wgt id='1606'> +7.2409245e+04 </wgt>
<wgt id='1607'> +7.3098315e+04 </wgt>
<wgt id='1608'> +7.2982988e+04 </wgt>
<wgt id='1609'> +7.1942758e+04 </wgt>
<wgt id='1610'> +7.2961926e+04 </wgt>
<wgt id='1611'> +7.2811820e+04 </wgt>
<wgt id='1612'> +7.3851304e+04 </wgt>
<wgt id='1613'> +7.0989549e+04 </wgt>
<wgt id='1614'> +7.3112763e+04 </wgt>
<wgt id='1615'> +7.2712121e+04 </wgt>
<wgt id='1616'> +7.2439728e+04 </wgt>
<wgt id='1617'> +7.2840833e+04 </wgt>
<wgt id='1618'> +7.3300303e+04 </wgt>
<wgt id='1619'> +7.2177404e+04 </wgt>
<wgt id='1620'> +7.1710001e+04 </wgt>
<wgt id='1621'> +7.3652805e+04 </wgt>
<wgt id='1622'> +7.2096968e+04 </wgt>
<wgt id='1623'> +7.2929609e+04 </wgt>
<wgt id='1624'> +7.3133242e+04 </wgt>
<wgt id='1625'> +7.1606444e+04 </wgt>
<wgt id='1626'> +7.2170392e+04 </wgt>
<wgt id='1627'> +7.3254434e+04 </wgt>
<wgt id='1628'> +7.2623535e+04 </wgt>
<wgt id='1629'> +7.2972808e+04 </wgt>
<wgt id='1630'> +7.2898747e+04 </wgt>
<wgt id='1631'> +7.2531475e+04 </wgt>
<wgt id='1632'> +7.2826581e+04 </wgt>
<wgt id='1633'> +7.2714776e+04 </wgt>
<wgt id='1634'> +7.3413842e+04 </wgt>
<wgt id='1635'> +7.2276274e+04 </wgt>
<wgt id='1636'> +7.2356216e+04 </wgt>
<wgt id='1637'> +7.3365133e+04 </wgt>
<wgt id='1638'> +7.2724686e+04 </wgt>
<wgt id='1639'> +7.3024940e+04 </wgt>
<wgt id='1640'> +7.2234257e+04 </wgt>
<wgt id='1641'> +7.2761607e+04 </wgt>
<wgt id='1642'> +7.2623968e+04 </wgt>
<wgt id='1643'> +7.2743353e+04 </wgt>
<wgt id='1644'> +7.3150009e+04 </wgt>
<wgt id='1645'> +7.2077641e+04 </wgt>
<wgt id='1646'> +7.3528483e+04 </wgt>
<wgt id='1647'> +7.2423304e+04 </wgt>
<wgt id='1648'> +7.3026832e+04 </wgt>
<wgt id='1649'> +7.2371557e+04 </wgt>
<wgt id='1650'> +7.2589418e+04 </wgt>
<wgt id='1651'> +7.3301158e+04 </wgt>
<wgt id='1652'> +7.3618282e+04 </wgt>
<wgt id='1653'> +7.3307210e+04 </wgt>
<wgt id='1654'> +7.2624723e+04 </wgt>
<wgt id='1655'> +7.2277834e+04 </wgt>
<wgt id='1656'> +7.2820034e+04 </wgt>
<wgt id='1657'> +7.2413165e+04 </wgt>
<wgt id='1658'> +7.2352628e+04 </wgt>
<wgt id='1659'> +7.2830816e+04 </wgt>
<wgt id='1660'> +7.2855356e+04 </wgt>
<wgt id='1661'> +7.3385991e+04 </wgt>
<wgt id='1662'> +7.1963000e+04 </wgt>
<wgt id='1663'> +7.1939466e+04 </wgt>
<wgt id='1664'> +7.2501364e+04 </wgt>
<wgt id='1665'> +7.2278154e+04 </wgt>
<wgt id='1666'> +7.2715563e+04 </wgt>
<wgt id='1667'> +7.2956256e+04 </wgt>
<wgt id='1668'> +7.2582531e+04 </wgt>
<wgt id='1669'> +7.3300448e+04 </wgt>
<wgt id='1670'> +7.1815098e+04 </wgt>
<wgt id='1671'> +7.3255606e+04 </wgt>
<wgt id='1672'> +7.2046317e+04 </wgt>
<wgt id='1673'> +7.2126160e+04 </wgt>
<wgt id='1674'> +7.3253853e+04 </wgt>
<wgt id='1675'> +7.2366689e+04 </wgt>
<wgt id='1676'> +7.3124794e+04 </wgt>
<wgt id='1677'> +7.2814217e+04 </wgt>
<wgt id='1678'> +7.2726440e+04 </wgt>
<wgt id='1679'> +7.2548342e+04 </wgt>
<wgt id='1680'> +7.3514696e+04 </wgt>
<wgt id='1681'> +7.2437552e+04 </wgt>
<wgt id='1682'> +7.2600298e+04 </wgt>
<wgt id='1683'> +7.2772959e+04 </wgt>
<wgt id='1684'> +7.2759623e+04 </wgt>
<wgt id='1685'> +7.2627754e+04 </wgt>
<wgt id='1686'> +7.2654056e+04 </wgt>
<wgt id='1687'> +7.3272295e+04 </wgt>
<wgt id='1688'> +7.2018713e+04 </wgt>
<wgt id='1689'> +7.3031399e+04 </wgt>
<wgt id='1690'> +7.2639532e+04 </wgt>
<wgt id='1691'> +7.2763814e+04 </wgt>
<wgt id='1692'> +7.2307229e+04 </wgt>
<wgt id='1693'> +7.3807194e+04 </wgt>
<wgt id='1694'> +7.2157866e+04 </wgt>
<wgt id='1695'> +7.3046165e+04 </wgt>
<wgt id='1696'> +7.2161191e+04 </wgt>
<wgt id='1697'> +7.2528932e+04 </wgt>
<wgt id='1698'> +7.2974095e+04 </wgt>
<wgt id='1699'> +7.2404630e+04 </wgt>
<wgt id='1700'> +7.3074158e+04 </wgt>
<wgt id='1701'> +7.1818513e+04 </wgt>
<wgt id='1702'> +7.3928734e+04 </wgt>
<wgt id='1703'> +7.2721931e+04 </wgt>
<wgt id='1704'> +7.3108072e+04 </wgt>
<wgt id='1705'> +7.2014344e+04 </wgt>
<wgt id='1706'> +7.3151814e+04 </wgt>
<wgt id='1707'> +7.0778316e+04 </wgt>
<wgt id='1708'> +7.4210313e+04 </wgt>
<wgt id='1709'> +7.2594257e+04 </wgt>
<wgt id='1710'> +7.2977600e+04 </wgt>
<wgt id='1711'> +7.1997234e+04 </wgt>
<wgt id='1712'> +7.2809786e+04 </wgt>
<wgt id='1713'> +7.1851338e+04 </wgt>
<wgt id='1714'> +7.3119997e+04 </wgt>
<wgt id='1715'> +7.2138082e+04 </wgt>
<wgt id='1716'> +7.2970685e+04 </wgt>
<wgt id='1717'> +7.0571456e+04 </wgt>
<wgt id='1718'> +7.0482114e+04 </wgt>
<wgt id='1719'> +7.0686017e+04 </wgt>
<wgt id='1720'> +7.0281009e+04 </wgt>
<wgt id='1721'> +7.0836730e+04 </wgt>
<wgt id='1722'> +7.0388952e+04 </wgt>
<wgt id='1723'> +7.0870594e+04 </wgt>
<wgt id='1724'> +7.0819427e+04 </wgt>
<wgt id='1725'> +7.0369797e+04 </wgt>
<wgt id='1726'> +7.0638581e+04 </wgt>
<wgt id='1727'> +7.0502239e+04 </wgt>
<wgt id='1728'> +7.0398871e+04 </wgt>
<wgt id='1729'> +7.0737867e+04 </wgt>
<wgt id='1730'> +7.0651668e+04 </wgt>
<wgt id='1731'> +7.0514601e+04 </wgt>
<wgt id='1732'> +7.0624089e+04 </wgt>
<wgt id='1733'> +7.0624089e+04 </wgt>
<wgt id='1734'> +7.0789465e+04 </wgt>
<wgt id='1735'> +7.0422130e+04 </wgt>
<wgt id='1736'> +7.0552647e+04 </wgt>
<wgt id='1737'> +7.0599709e+04 </wgt>
<wgt id='1738'> +7.0589084e+04 </wgt>
<wgt id='1739'> +7.0530758e+04 </wgt>
<wgt id='1740'> +7.0484646e+04 </wgt>
<wgt id='1741'> +7.0778772e+04 </wgt>
<wgt id='1742'> +7.0544499e+04 </wgt>
<wgt id='1743'> +7.0610499e+04 </wgt>
<wgt id='1744'> +7.0687866e+04 </wgt>
<wgt id='1745'> +7.0254394e+04 </wgt>
<wgt id='1746'> +7.0606076e+04 </wgt>
<wgt id='1747'> +7.0543722e+04 </wgt>
<wgt id='1748'> +7.0812434e+04 </wgt>
<wgt id='1749'> +6.9824052e+04 </wgt>
<wgt id='1750'> +7.0772678e+04 </wgt>
<wgt id='1751'> +7.0356211e+04 </wgt>
<wgt id='1752'> +7.0378900e+04 </wgt>
<wgt id='1753'> +7.0830364e+04 </wgt>
<wgt id='1754'> +7.0660160e+04 </wgt>
<wgt id='1755'> +7.0521343e+04 </wgt>
<wgt id='1756'> +7.0386687e+04 </wgt>
<wgt id='1757'> +7.1042771e+04 </wgt>
<wgt id='1758'> +7.0988291e+04 </wgt>
<wgt id='1759'> +7.0160566e+04 </wgt>
<wgt id='1760'> +7.1385218e+04 </wgt>
<wgt id='1761'> +6.9817831e+04 </wgt>
<wgt id='1762'> +7.0507061e+04 </wgt>
<wgt id='1763'> +7.0371617e+04 </wgt>
<wgt id='1764'> +7.0454833e+04 </wgt>
<wgt id='1765'> +7.1036330e+04 </wgt>
<wgt id='1766'> +7.0432046e+04 </wgt>
<wgt id='1767'> +7.0749658e+04 </wgt>
<wgt id='1768'> +7.0468092e+04 </wgt>
<wgt id='1769'> +7.0619646e+04 </wgt>
<wgt id='1770'> +7.0413968e+04 </wgt>
<wgt id='1771'> +7.0445122e+04 </wgt>
<wgt id='1772'> +7.0797355e+04 </wgt>
<wgt id='1773'> +7.0296785e+04 </wgt>
<wgt id='1774'> +6.9916285e+04 </wgt>
<wgt id='1775'> +7.1000301e+04 </wgt>
<wgt id='1776'> +7.0281553e+04 </wgt>
<wgt id='1777'> +7.0707709e+04 </wgt>
<wgt id='1778'> +7.0077035e+04 </wgt>
<wgt id='1779'> +7.0617457e+04 </wgt>
<wgt id='1780'> +7.1036953e+04 </wgt>
<wgt id='1781'> +7.0724153e+04 </wgt>
<wgt id='1782'> +7.0571456e+04 </wgt>
<wgt id='1783'> +7.0613292e+04 </wgt>
<wgt id='1784'> +7.2102405e+04 </wgt>
<wgt id='1785'> +7.2188010e+04 </wgt>
<wgt id='1786'> +7.1346435e+04 </wgt>
<wgt id='1787'> +7.2169633e+04 </wgt>
<wgt id='1788'> +7.1912892e+04 </wgt>
<wgt id='1789'> +7.2157694e+04 </wgt>
<wgt id='1790'> +7.2321948e+04 </wgt>
<wgt id='1791'> +7.2168438e+04 </wgt>
<wgt id='1792'> +7.1067117e+04 </wgt>
<wgt id='1793'> +7.2356891e+04 </wgt>
<wgt id='1794'> +7.2062798e+04 </wgt>
<wgt id='1795'> +7.2047179e+04 </wgt>
<wgt id='1796'> +7.2183742e+04 </wgt>
<wgt id='1797'> +7.2421820e+04 </wgt>
<wgt id='1798'> +7.2252821e+04 </wgt>
<wgt id='1799'> +7.2338085e+04 </wgt>
<wgt id='1800'> +7.2357612e+04 </wgt>
<wgt id='1801'> +7.2999774e+04 </wgt>
<wgt id='1802'> +7.2697099e+04 </wgt>
<wgt id='1803'> +7.2149186e+04 </wgt>
<wgt id='1804'> +7.2181071e+04 </wgt>
<wgt id='1805'> +7.1695762e+04 </wgt>
<wgt id='1806'> +7.2162608e+04 </wgt>
<wgt id='1807'> +7.2118208e+04 </wgt>
<wgt id='1808'> +7.2191832e+04 </wgt>
<wgt id='1809'> +7.2221890e+04 </wgt>
<wgt id='1810'> +7.2080631e+04 </wgt>
<wgt id='1811'> +7.2076211e+04 </wgt>
<wgt id='1812'> +7.1924129e+04 </wgt>
<wgt id='1813'> +7.1697894e+04 </wgt>
<wgt id='1814'> +7.2380067e+04 </wgt>
<wgt id='1815'> +7.1955779e+04 </wgt>
<wgt id='1816'> +7.2094368e+04 </wgt>
<wgt id='1817'> +7.2163099e+04 </wgt>
<wgt id='1818'> +7.2183171e+04 </wgt>
<wgt id='1819'> +7.1933024e+04 </wgt>
<wgt id='1820'> +7.2191187e+04 </wgt>
<wgt id='1821'> +7.1853315e+04 </wgt>
<wgt id='1822'> +7.2061218e+04 </wgt>
<wgt id='1823'> +7.2140557e+04 </wgt>
<wgt id='1824'> +7.2426905e+04 </wgt>
<wgt id='1825'> +7.1980745e+04 </wgt>
<wgt id='1826'> +7.2698858e+04 </wgt>
<wgt id='1827'> +7.0768616e+04 </wgt>
<wgt id='1828'> +7.0815255e+04 </wgt>
<wgt id='1829'> +7.0714978e+04 </wgt>
<wgt id='1830'> +7.0717641e+04 </wgt>
<wgt id='1831'> +7.0812524e+04 </wgt>
<wgt id='1832'> +7.0878466e+04 </wgt>
<wgt id='1833'> +7.0651771e+04 </wgt>
<wgt id='1834'> +7.0777429e+04 </wgt>
<wgt id='1835'> +7.0749755e+04 </wgt>
<wgt id='1836'> +7.0939031e+04 </wgt>
<wgt id='1837'> +7.0592782e+04 </wgt>
<wgt id='1838'> +7.1151690e+04 </wgt>
<wgt id='1839'> +7.0380144e+04 </wgt>
<wgt id='1840'> +7.0539797e+04 </wgt>
<wgt id='1841'> +7.0988356e+04 </wgt>
<wgt id='1842'> +7.0650020e+04 </wgt>
<wgt id='1843'> +7.0795066e+04 </wgt>
<wgt id='1844'> +7.0840398e+04 </wgt>
<wgt id='1845'> +7.0676315e+04 </wgt>
<wgt id='1846'> +7.0797412e+04 </wgt>
<wgt id='1847'> +7.0721447e+04 </wgt>
<wgt id='1848'> +7.0488309e+04 </wgt>
<wgt id='1849'> +7.0964314e+04 </wgt>
<wgt id='1850'> +7.1105032e+04 </wgt>
<wgt id='1851'> +7.0428150e+04 </wgt>
<wgt id='1852'> +7.1307574e+04 </wgt>
<wgt id='1853'> +7.0109105e+04 </wgt>
<wgt id='1854'> +7.1416955e+04 </wgt>
<wgt id='1855'> +7.0187595e+04 </wgt>
<wgt id='1856'> +7.1034443e+04 </wgt>
<wgt id='1857'> +7.1023340e+04 </wgt>
<wgt id='1858'> +7.1054389e+04 </wgt>
<wgt id='1859'> +7.0978804e+04 </wgt>
<wgt id='1860'> +7.1035388e+04 </wgt>
<wgt id='1861'> +7.1050694e+04 </wgt>
<wgt id='1862'> +7.0798165e+04 </wgt>
<wgt id='1863'> +7.1108280e+04 </wgt>
<wgt id='1864'> +7.1105550e+04 </wgt>
<wgt id='1865'> +7.1030106e+04 </wgt>
<wgt id='1866'> +7.0990121e+04 </wgt>
<wgt id='1867'> +7.1039261e+04 </wgt>
<wgt id='1868'> +7.1010277e+04 </wgt>
<wgt id='1869'> +7.1055489e+04 </wgt>
<wgt id='1870'> +7.1024479e+04 </wgt>
<wgt id='1871'> +7.1025312e+04 </wgt>
<wgt id='1872'> +7.0946557e+04 </wgt>
<wgt id='1873'> +7.1035533e+04 </wgt>
<wgt id='1874'> +7.1083056e+04 </wgt>
<wgt id='1875'> +7.1197679e+04 </wgt>
<wgt id='1876'> +7.0948702e+04 </wgt>
<wgt id='1877'> +7.0930510e+04 </wgt>
<wgt id='1878'> +7.0762607e+04 </wgt>
<wgt id='1879'> +7.1319804e+04 </wgt>
<wgt id='1880'> +7.1216464e+04 </wgt>
<wgt id='1881'> +7.1159268e+04 </wgt>
<wgt id='1882'> +7.1205497e+04 </wgt>
<wgt id='1883'> +7.1130262e+04 </wgt>
<wgt id='1884'> +7.0671404e+04 </wgt>
<wgt id='1885'> +7.0504522e+04 </wgt>
<wgt id='1886'> +8.0918686e+04 </wgt>
<wgt id='1887'> +8.5875828e+04 </wgt>
<wgt id='1888'> +7.3151303e+04 </wgt>
<wgt id='1889'> +8.0062359e+04 </wgt>
</rwgt>
</event>
<event npLO=" -1 " npNLO=" 0 ">
 5      1 +7.4519530e+04 3.00000000e+01 7.55820760e-03 1.19133150e-01
        1 -1    0    0  501    0 +0.0000000000e+00 +0.0000000000e+00 +1.9783590234e+01 1.9783590234e+01 0.0000000000e+00 0.0000e+00 -1.0000e+00
       -2 -1    0    0    0  501 +0.0000000000e+00 +0.0000000000e+00 -7.6562133984e+01 7.6562133984e+01 0.0000000000e+00 0.0000e+00 1.0000e+00
      -24  2    1    2    0    0 +0.0000000000e+00 +0.0000000000e+00 -5.6778543751e+01 9.6345724218e+01 7.7837622938e+01 0.0000e+00 0.0000e+00
       15  1    3    3    0    0 -1.2874697220e+01 -2.4039903736e+01 +5.9299629448e+00 2.7964209083e+01 1.7770000000e+00 0.0000e+00 -1.0000e+00
      -16  1    3    3    0    0 +1.2874697220e+01 +2.4039903736e+01 -6.2708506695e+01 6.8381515135e+01 0.0000000000e+00 0.0000e+00 1.0000e+00
#aMCatNLO 1  0  0  1  2 0.16077401E+03 0.00000000E+00 -9  5  0 0.00000000E+00 0.00000000E+00 0.00000000E+00 0.00000000E+00 0.00000000E+00
<rwgt>
<wgt id='1001'> +7.4519530e+04 </wgt>
<wgt id='1002'> +7.4467301e+04 </wgt>
<wgt id='1003'> +7.4584679e+04 </wgt>
<wgt id='1004'> +8.2753590e+04 </wgt>
<wgt id='1005'> +8.2759960e+04 </wgt>
<wgt id='1006'> +8.2745644e+04 </wgt>
<wgt id='1007'> +6.5386176e+04 </wgt>
<wgt id='1008'> +6.5290303e+04 </wgt>
<wgt id='1009'> +6.5505777e+04 </wgt>
<wgt id='1010'> +7.4519530e+04 </wgt>
<wgt id='1011'> +7.4377065e+04 </wgt>
<wgt id='1012'> +7.4446358e+04 </wgt>
<wgt id='1013'> +7.4005556e+04 </wgt>
<wgt id='1014'> +7.4904201e+04 </wgt>
<wgt id='1015'> +7.4149781e+04 </wgt>
<wgt id='1016'> +7.4507738e+04 </wgt>
<wgt id='1017'> +7.4570259e+04 </wgt>
<wgt id='1018'> +7.4145490e+04 </wgt>
<wgt id='1019'> +7.4994435e+04 </wgt>
<wgt id='1020'> +7.4001358e+04 </wgt>
<wgt id='1021'> +7.4466790e+04 </wgt>
<wgt id='1022'> +7.4701466e+04 </wgt>
<wgt id='1023'> +7.4774912e+04 </wgt>
<wgt id='1024'> +7.4777793e+04 </wgt>
<wgt id='1025'> +7.5524840e+04 </wgt>
<wgt id='1026'> +7.4203286e+04 </wgt>
<wgt id='1027'> +7.4362090e+04 </wgt>
<wgt id='1028'> +7.3951833e+04 </wgt>
<wgt id='1029'> +7.4613841e+04 </wgt>
<wgt id='1030'> +7.4867861e+04 </wgt>
<wgt id='1031'> +7.4290632e+04 </wgt>
<wgt id='1032'> +7.4864330e+04 </wgt>
<wgt id='1033'> +7.4031559e+04 </wgt>
<wgt id='1034'> +7.3970742e+04 </wgt>
<wgt id='1035'> +7.4189840e+04 </wgt>
<wgt id='1036'> +7.4286015e+04 </wgt>
<wgt id='1037'> +7.5180495e+04 </wgt>
<wgt id='1038'> +7.4886062e+04 </wgt>
<wgt id='1039'> +7.4476882e+04 </wgt>
<wgt id='1040'> +7.4603309e+04 </wgt>
<wgt id='1041'> +7.4861549e+04 </wgt>
<wgt id='1042'> +7.4349759e+04 </wgt>
<wgt id='1043'> +7.4528035e+04 </wgt>
<wgt id='1044'> +7.4587132e+04 </wgt>
<wgt id='1045'> +7.4427725e+04 </wgt>
<wgt id='1046'> +7.4374412e+04 </wgt>
<wgt id='1047'> +7.4733917e+04 </wgt>
<wgt id='1048'> +7.4811780e+04 </wgt>
<wgt id='1049'> +7.4522883e+04 </wgt>
<wgt id='1050'> +7.4653803e+04 </wgt>
<wgt id='1051'> +7.4674539e+04 </wgt>
<wgt id='1052'> +7.4600443e+04 </wgt>
<wgt id='1053'> +7.4638419e+04 </wgt>
<wgt id='1054'> +7.4615909e+04 </wgt>
<wgt id='1055'> +7.4603606e+04 </wgt>
<wgt id='1056'> +7.4456170e+04 </wgt>
<wgt id='1057'> +7.4552212e+04 </wgt>
<wgt id='1058'> +7.4545835e+04 </wgt>
<wgt id='1059'> +7.4446951e+04 </wgt>
<wgt id='1060'> +7.4502946e+04 </wgt>
<wgt id='1061'> +7.4516734e+04 </wgt>
<wgt id='1062'> +7.4510429e+04 </wgt>
<wgt id='1063'> +7.4478374e+04 </wgt>
<wgt id='1064'> +7.4432413e+04 </wgt>
<wgt id='1065'> +7.4580133e+04 </wgt>
<wgt id='1066'> +7.4675726e+04 </wgt>
<wgt id='1067'> +7.4556344e+04 </wgt>
<wgt id='1068'> +7.4433020e+04 </wgt>
<wgt id='1069'> +7.4725294e+04 </wgt>
<wgt id='1070'> +7.4452917e+04 </wgt>
<wgt id='1071'> +7.4425719e+04 </wgt>
<wgt id='1072'> +7.4539974e+04 </wgt>
<wgt id='1073'> +7.4629288e+04 </wgt>
<wgt id='1074'> +7.4648473e+04 </wgt>
<wgt id='1075'> +7.4484414e+04 </wgt>
<wgt id='1076'> +7.4628770e+04 </wgt>
<wgt id='1077'> +7.4592031e+04 </wgt>
<wgt id='1078'> +7.4369916e+04 </wgt>
<wgt id='1079'> +7.4516217e+04 </wgt>
<wgt id='1080'> +7.4487339e+04 </wgt>
<wgt id='1081'> +7.4599122e+04 </wgt>
<wgt id='1082'> +7.4558582e+04 </wgt>
<wgt id='1083'> +7.4599245e+04 </wgt>
<wgt id='1084'> +7.4566129e+04 </wgt>
<wgt id='1085'> +7.4526042e+04 </wgt>
<wgt id='1086'> +7.4474403e+04 </wgt>
<wgt id='1087'> +7.4518994e+04 </wgt>
<wgt id='1088'> +7.4532664e+04 </wgt>
<wgt id='1089'> +7.4428383e+04 </wgt>
<wgt id='1090'> +7.4487840e+04 </wgt>
<wgt id='1091'> +7.4492964e+04 </wgt>
<wgt id='1092'> +7.4487326e+04 </wgt>
<wgt id='1093'> +7.4566697e+04 </wgt>
<wgt id='1094'> +7.4500235e+04 </wgt>
<wgt id='1095'> +7.4497482e+04 </wgt>
<wgt id='1096'> +7.4433832e+04 </wgt>
<wgt id='1097'> +7.4565397e+04 </wgt>
<wgt id='1098'> +7.4466578e+04 </wgt>
<wgt id='1099'> +7.4585437e+04 </wgt>
<wgt id='1100'> +7.4510061e+04 </wgt>
<wgt id='1101'> +7.4519084e+04 </wgt>
<wgt id='1102'> +7.4553505e+04 </wgt>
<wgt id='1103'> +7.4514662e+04 </wgt>
<wgt id='1104'> +7.4519739e+04 </wgt>
<wgt id='1105'> +7.4496825e+04 </wgt>
<wgt id='1106'> +7.4535027e+04 </wgt>
<wgt id='1107'> +7.4562734e+04 </wgt>
<wgt id='1108'> +7.4536020e+04 </wgt>
<wgt id='1109'> +7.4535880e+04 </wgt>
<wgt id='1110'> +7.4519527e+04 </wgt>
<wgt id='1111'> +7.4391004e+04 </wgt>
<wgt id='1112'> +7.4844324e+04 </wgt>
<wgt id='1113'> +7.4519527e+04 </wgt>
<wgt id='1114'> +8.1582739e+04 </wgt>
<wgt id='1115'> +7.5105480e+04 </wgt>
<wgt id='1116'> +7.1733977e+04 </wgt>
<wgt id='1117'> +7.3881894e+04 </wgt>
<wgt id='1118'> +7.3245695e+04 </wgt>
<wgt id='1119'> +7.9568951e+04 </wgt>
<wgt id='1120'> +7.5469294e+04 </wgt>
<wgt id='1121'> +7.0010875e+04 </wgt>
<wgt id='1122'> +7.1407675e+04 </wgt>
<wgt id='1123'> +7.3696641e+04 </wgt>
<wgt id='1124'> +7.4582145e+04 </wgt>
<wgt id='1125'> +7.1898375e+04 </wgt>
<wgt id='1126'> +7.3799162e+04 </wgt>
<wgt id='1127'> +7.3803116e+04 </wgt>
<wgt id='1128'> +7.4761098e+04 </wgt>
<wgt id='1129'> +7.5170305e+04 </wgt>
<wgt id='1130'> +7.6856991e+04 </wgt>
<wgt id='1131'> +7.2589295e+04 </wgt>
<wgt id='1132'> +7.5161110e+04 </wgt>
<wgt id='1133'> +7.0160347e+04 </wgt>
<wgt id='1134'> +7.2765731e+04 </wgt>
<wgt id='1135'> +7.6341806e+04 </wgt>
<wgt id='1136'> +7.6029901e+04 </wgt>
<wgt id='1137'> +7.1489167e+04 </wgt>
<wgt id='1138'> +7.2866036e+04 </wgt>
<wgt id='1139'> +7.5327336e+04 </wgt>
<wgt id='1140'> +7.8643759e+04 </wgt>
<wgt id='1141'> +7.3940349e+04 </wgt>
<wgt id='1142'> +7.4870151e+04 </wgt>
<wgt id='1143'> +7.7540238e+04 </wgt>
<wgt id='1144'> +7.7247235e+04 </wgt>
<wgt id='1145'> +7.4401241e+04 </wgt>
<wgt id='1146'> +7.7565586e+04 </wgt>
<wgt id='1147'> +7.0196881e+04 </wgt>
<wgt id='1148'> +7.5520521e+04 </wgt>
<wgt id='1149'> +7.4731614e+04 </wgt>
<wgt id='1150'> +7.3915555e+04 </wgt>
<wgt id='1151'> +7.3890097e+04 </wgt>
<wgt id='1152'> +7.3745191e+04 </wgt>
<wgt id='1153'> +7.5746839e+04 </wgt>
<wgt id='1154'> +7.5179097e+04 </wgt>
<wgt id='1155'> +7.6241819e+04 </wgt>
<wgt id='1156'> +7.7171850e+04 </wgt>
<wgt id='1157'> +7.7538177e+04 </wgt>
<wgt id='1158'> +7.5264931e+04 </wgt>
<wgt id='1159'> +7.7037329e+04 </wgt>
<wgt id='1160'> +7.6504484e+04 </wgt>
<wgt id='1161'> +7.2001798e+04 </wgt>
<wgt id='1162'> +7.7463906e+04 </wgt>
<wgt id='1163'> +7.5575027e+04 </wgt>
<wgt id='1164'> +7.1920638e+04 </wgt>
<wgt id='1165'> +7.3317512e+04 </wgt>
<wgt id='1166'> +7.4903771e+04 </wgt>
<wgt id='1167'> +7.5904822e+04 </wgt>
<wgt id='1168'> +7.3780248e+04 </wgt>
<wgt id='1169'> +7.4689792e+04 </wgt>
<wgt id='1170'> +7.6257015e+04 </wgt>
<wgt id='1171'> +7.3852211e+04 </wgt>
<wgt id='1172'> +7.4966846e+04 </wgt>
<wgt id='1173'> +7.5233929e+04 </wgt>
<wgt id='1174'> +7.6939227e+04 </wgt>
<wgt id='1175'> +7.3595643e+04 </wgt>
<wgt id='1176'> +7.4593620e+04 </wgt>
<wgt id='1177'> +7.0565027e+04 </wgt>
<wgt id='1178'> +7.6639636e+04 </wgt>
<wgt id='1179'> +7.6797345e+04 </wgt>
<wgt id='1180'> +7.5597637e+04 </wgt>
<wgt id='1181'> +7.7429741e+04 </wgt>
<wgt id='1182'> +7.5977251e+04 </wgt>
<wgt id='1183'> +7.3104687e+04 </wgt>
<wgt id='1184'> +7.2876649e+04 </wgt>
<wgt id='1185'> +7.5101045e+04 </wgt>
<wgt id='1186'> +7.0465182e+04 </wgt>
<wgt id='1187'> +7.1353050e+04 </wgt>
<wgt id='1188'> +7.3272227e+04 </wgt>
<wgt id='1189'> +7.6226787e+04 </wgt>
<wgt id='1190'> +7.1768982e+04 </wgt>
<wgt id='1191'> +7.4605148e+04 </wgt>
<wgt id='1192'> +7.4238561e+04 </wgt>
<wgt id='1193'> +7.6768528e+04 </wgt>
<wgt id='1194'> +7.4279655e+04 </wgt>
<wgt id='1195'> +7.5170305e+04 </wgt>
<wgt id='1196'> +7.5928245e+04 </wgt>
<wgt id='1197'> +7.2481283e+04 </wgt>
<wgt id='1198'> +7.3494503e+04 </wgt>
<wgt id='1199'> +7.8110491e+04 </wgt>
<wgt id='1200'> +7.0795484e+04 </wgt>
<wgt id='1201'> +7.7946628e+04 </wgt>
<wgt id='1202'> +6.9728461e+04 </wgt>
<wgt id='1203'> +7.3501825e+04 </wgt>
<wgt id='1204'> +7.2898276e+04 </wgt>
<wgt id='1205'> +7.0404522e+04 </wgt>
<wgt id='1206'> +7.3151305e+04 </wgt>
<wgt id='1207'> +7.5120054e+04 </wgt>
<wgt id='1208'> +7.2908137e+04 </wgt>
<wgt id='1209'> +7.4991340e+04 </wgt>
<wgt id='1210'> +7.6636728e+04 </wgt>
<wgt id='1211'> +7.4945042e+04 </wgt>
<wgt id='1212'> +7.3002336e+04 </wgt>
<wgt id='1213'> +7.3204475e+04 </wgt>
<wgt id='1214'> +7.4531112e+04 </wgt>
<wgt id='1215'> +7.4510606e+04 </wgt>
<wgt id='1216'> +7.4188162e+04 </wgt>
<wgt id='1217'> +7.3914619e+04 </wgt>
<wgt id='1218'> +7.4257715e+04 </wgt>
<wgt id='1219'> +7.4549816e+04 </wgt>
<wgt id='1220'> +7.4721495e+04 </wgt>
<wgt id='1221'> +7.4926660e+04 </wgt>
<wgt id='1222'> +7.5082385e+04 </wgt>
<wgt id='1223'> +7.3400793e+04 </wgt>
<wgt id='1224'> +7.3338087e+04 </wgt>
<wgt id='1225'> +7.3559751e+04 </wgt>
<wgt id='1226'> +7.3320176e+04 </wgt>
<wgt id='1227'> +7.3980166e+04 </wgt>
<wgt id='1228'> +7.3490772e+04 </wgt>
<wgt id='1229'> +7.3013664e+04 </wgt>
<wgt id='1230'> +7.3641454e+04 </wgt>
<wgt id='1231'> +7.3422193e+04 </wgt>
<wgt id='1232'> +7.3652840e+04 </wgt>
<wgt id='1233'> +7.2537522e+04 </wgt>
<wgt id='1234'> +7.3257508e+04 </wgt>
<wgt id='1235'> +7.3716845e+04 </wgt>
<wgt id='1236'> +7.3679372e+04 </wgt>
<wgt id='1237'> +7.3747129e+04 </wgt>
<wgt id='1238'> +7.2737655e+04 </wgt>
<wgt id='1239'> +7.4123812e+04 </wgt>
<wgt id='1240'> +7.3111531e+04 </wgt>
<wgt id='1241'> +7.3788902e+04 </wgt>
<wgt id='1242'> +7.3357792e+04 </wgt>
<wgt id='1243'> +7.2923849e+04 </wgt>
<wgt id='1244'> +7.4066017e+04 </wgt>
<wgt id='1245'> +7.3389715e+04 </wgt>
<wgt id='1246'> +7.3085557e+04 </wgt>
<wgt id='1247'> +7.3781087e+04 </wgt>
<wgt id='1248'> +7.2984236e+04 </wgt>
<wgt id='1249'> +7.3404746e+04 </wgt>
<wgt id='1250'> +7.3525170e+04 </wgt>
<wgt id='1251'> +7.3437579e+04 </wgt>
<wgt id='1252'> +7.3728365e+04 </wgt>
<wgt id='1253'> +7.2938675e+04 </wgt>
<wgt id='1254'> +7.3705577e+04 </wgt>
<wgt id='1255'> +7.3083378e+04 </wgt>
<wgt id='1256'> +7.3654064e+04 </wgt>
<wgt id='1257'> +7.3627628e+04 </wgt>
<wgt id='1258'> +7.3350825e+04 </wgt>
<wgt id='1259'> +7.3297952e+04 </wgt>
<wgt id='1260'> +7.3180919e+04 </wgt>
<wgt id='1261'> +7.3424119e+04 </wgt>
<wgt id='1262'> +7.3266164e+04 </wgt>
<wgt id='1263'> +7.3375032e+04 </wgt>
<wgt id='1264'> +7.3191972e+04 </wgt>
<wgt id='1265'> +7.3333363e+04 </wgt>
<wgt id='1266'> +7.3376161e+04 </wgt>
<wgt id='1267'> +7.3387343e+04 </wgt>
<wgt id='1268'> +7.3558509e+04 </wgt>
<wgt id='1269'> +7.3459590e+04 </wgt>
<wgt id='1270'> +7.3198632e+04 </wgt>
<wgt id='1271'> +7.3241313e+04 </wgt>
<wgt id='1272'> +7.3452644e+04 </wgt>
<wgt id='1273'> +7.3416791e+04 </wgt>
<wgt id='1274'> +7.3433162e+04 </wgt>
<wgt id='1275'> +7.3292914e+04 </wgt>
<wgt id='1276'> +7.3329553e+04 </wgt>
<wgt id='1277'> +7.3156520e+04 </wgt>
<wgt id='1278'> +7.3335700e+04 </wgt>
<wgt id='1279'> +7.3517735e+04 </wgt>
<wgt id='1280'> +7.3403277e+04 </wgt>
<wgt id='1281'> +7.3358176e+04 </wgt>
<wgt id='1282'> +7.3339422e+04 </wgt>
<wgt id='1283'> +7.3445585e+04 </wgt>
<wgt id='1284'> +7.3499102e+04 </wgt>
<wgt id='1285'> +7.3433211e+04 </wgt>
<wgt id='1286'> +7.3435013e+04 </wgt>
<wgt id='1287'> +7.3436985e+04 </wgt>
<wgt id='1288'> +7.3464564e+04 </wgt>
<wgt id='1289'> +7.3428397e+04 </wgt>
<wgt id='1290'> +7.3309473e+04 </wgt>
<wgt id='1291'> +7.3404648e+04 </wgt>
<wgt id='1292'> +7.3377909e+04 </wgt>
<wgt id='1293'> +7.3403333e+04 </wgt>
<wgt id='1294'> +7.3430992e+04 </wgt>
<wgt id='1295'> +7.3300816e+04 </wgt>
<wgt id='1296'> +7.3423565e+04 </wgt>
<wgt id='1297'> +7.3468039e+04 </wgt>
<wgt id='1298'> +7.3345271e+04 </wgt>
<wgt id='1299'> +7.3455657e+04 </wgt>
<wgt id='1300'> +7.3377587e+04 </wgt>
<wgt id='1301'> +7.3419994e+04 </wgt>
<wgt id='1302'> +7.3316053e+04 </wgt>
<wgt id='1303'> +7.3442320e+04 </wgt>
<wgt id='1304'> +7.3495158e+04 </wgt>
<wgt id='1305'> +7.3381525e+04 </wgt>
<wgt id='1306'> +7.3393773e+04 </wgt>
<wgt id='1307'> +7.3342048e+04 </wgt>
<wgt id='1308'> +7.3468485e+04 </wgt>
<wgt id='1309'> +7.3437875e+04 </wgt>
<wgt id='1310'> +7.3373555e+04 </wgt>
<wgt id='1311'> +7.3454377e+04 </wgt>
<wgt id='1312'> +7.3473357e+04 </wgt>
<wgt id='1313'> +7.3404293e+04 </wgt>
<wgt id='1314'> +7.3351938e+04 </wgt>
<wgt id='1315'> +7.3354442e+04 </wgt>
<wgt id='1316'> +7.3418472e+04 </wgt>
<wgt id='1317'> +7.3368283e+04 </wgt>
<wgt id='1318'> +7.3351403e+04 </wgt>
<wgt id='1319'> +7.3472081e+04 </wgt>
<wgt id='1320'> +7.3442300e+04 </wgt>
<wgt id='1321'> +7.3369933e+04 </wgt>
<wgt id='1322'> +7.3413483e+04 </wgt>
<wgt id='1323'> +7.3363532e+04 </wgt>
<wgt id='1324'> +7.3232649e+04 </wgt>
<wgt id='1325'> +7.3725632e+04 </wgt>
<wgt id='1326'> +7.0760895e+04 </wgt>
<wgt id='1327'> +6.7073488e+04 </wgt>
<wgt id='1328'> +7.4627884e+04 </wgt>
<wgt id='1329'> +7.5226297e+04 </wgt>
<wgt id='1330'> +7.4249870e+04 </wgt>
<wgt id='1331'> +7.5206803e+04 </wgt>
<wgt id='1332'> +7.5265695e+04 </wgt>
<wgt id='1333'> +7.5606637e+04 </wgt>
<wgt id='1334'> +7.5264441e+04 </wgt>
<wgt id='1335'> +7.3595955e+04 </wgt>
<wgt id='1336'> +7.5638954e+04 </wgt>
<wgt id='1337'> +7.4091397e+04 </wgt>
<wgt id='1338'> +7.4309038e+04 </wgt>
<wgt id='1339'> +7.4768032e+04 </wgt>
<wgt id='1340'> +7.3977732e+04 </wgt>
<wgt id='1341'> +7.3014733e+04 </wgt>
<wgt id='1342'> +7.4647739e+04 </wgt>
<wgt id='1343'> +7.5043070e+04 </wgt>
<wgt id='1344'> +7.5369248e+04 </wgt>
<wgt id='1345'> +7.4916313e+04 </wgt>
<wgt id='1346'> +7.3619301e+04 </wgt>
<wgt id='1347'> +7.5300541e+04 </wgt>
<wgt id='1348'> +7.5628143e+04 </wgt>
<wgt id='1349'> +7.4038789e+04 </wgt>
<wgt id='1350'> +7.3903475e+04 </wgt>
<wgt id='1351'> +7.4971801e+04 </wgt>
<wgt id='1352'> +7.4305506e+04 </wgt>
<wgt id='1353'> +7.6982166e+04 </wgt>
<wgt id='1354'> +7.4860006e+04 </wgt>
<wgt id='1355'> +7.3447828e+04 </wgt>
<wgt id='1356'> +7.3055172e+04 </wgt>
<wgt id='1357'> +7.4686068e+04 </wgt>
<wgt id='1358'> +7.4641073e+04 </wgt>
<wgt id='1359'> +7.4013205e+04 </wgt>
<wgt id='1360'> +7.4979654e+04 </wgt>
<wgt id='1361'> +7.6857313e+04 </wgt>
<wgt id='1362'> +7.3791971e+04 </wgt>
<wgt id='1363'> +7.4952131e+04 </wgt>
<wgt id='1364'> +7.4343340e+04 </wgt>
<wgt id='1365'> +7.5888892e+04 </wgt>
<wgt id='1366'> +7.4546706e+04 </wgt>
<wgt id='1367'> +7.4617524e+04 </wgt>
<wgt id='1368'> +7.4245295e+04 </wgt>
<wgt id='1369'> +7.6679159e+04 </wgt>
<wgt id='1370'> +7.2807471e+04 </wgt>
<wgt id='1371'> +7.4282677e+04 </wgt>
<wgt id='1372'> +7.5005319e+04 </wgt>
<wgt id='1373'> +7.3387594e+04 </wgt>
<wgt id='1374'> +7.4417206e+04 </wgt>
<wgt id='1375'> +7.4423847e+04 </wgt>
<wgt id='1376'> +7.3766132e+04 </wgt>
<wgt id='1377'> +7.3346322e+04 </wgt>
<wgt id='1378'> +7.3654389e+04 </wgt>
<wgt id='1379'> +7.4634716e+04 </wgt>
<wgt id='1380'> +7.5875324e+04 </wgt>
<wgt id='1381'> +7.3508545e+04 </wgt>
<wgt id='1382'> +7.5335628e+04 </wgt>
<wgt id='1383'> +7.4230302e+04 </wgt>
<wgt id='1384'> +7.5124536e+04 </wgt>
<wgt id='1385'> +7.4334820e+04 </wgt>
<wgt id='1386'> +7.4152504e+04 </wgt>
<wgt id='1387'> +7.2370125e+04 </wgt>
<wgt id='1388'> +7.3926645e+04 </wgt>
<wgt id='1389'> +7.3578846e+04 </wgt>
<wgt id='1390'> +7.4682460e+04 </wgt>
<wgt id='1391'> +7.4708911e+04 </wgt>
<wgt id='1392'> +7.3339293e+04 </wgt>
<wgt id='1393'> +7.3734118e+04 </wgt>
<wgt id='1394'> +7.5888892e+04 </wgt>
<wgt id='1395'> +7.4719736e+04 </wgt>
<wgt id='1396'> +7.4167458e+04 </wgt>
<wgt id='1397'> +7.4668637e+04 </wgt>
<wgt id='1398'> +7.5320515e+04 </wgt>
<wgt id='1399'> +7.3781490e+04 </wgt>
<wgt id='1400'> +7.5988675e+04 </wgt>
<wgt id='1401'> +7.3840221e+04 </wgt>
<wgt id='1402'> +7.5283444e+04 </wgt>
<wgt id='1403'> +7.4860265e+04 </wgt>
<wgt id='1404'> +7.3714475e+04 </wgt>
<wgt id='1405'> +7.5363782e+04 </wgt>
<wgt id='1406'> +7.4539190e+04 </wgt>
<wgt id='1407'> +7.4170130e+04 </wgt>
<wgt id='1408'> +7.4743861e+04 </wgt>
<wgt id='1409'> +7.4476486e+04 </wgt>
<wgt id='1410'> +7.6332889e+04 </wgt>
<wgt id='1411'> +7.4692244e+04 </wgt>
<wgt id='1412'> +7.4743670e+04 </wgt>
<wgt id='1413'> +7.4964290e+04 </wgt>
<wgt id='1414'> +7.5930073e+04 </wgt>
<wgt id='1415'> +7.5147155e+04 </wgt>
<wgt id='1416'> +7.4456975e+04 </wgt>
<wgt id='1417'> +7.6132256e+04 </wgt>
<wgt id='1418'> +7.5247499e+04 </wgt>
<wgt id='1419'> +7.3570861e+04 </wgt>
<wgt id='1420'> +7.5132909e+04 </wgt>
<wgt id='1421'> +7.5436775e+04 </wgt>
<wgt id='1422'> +7.4171729e+04 </wgt>
<wgt id='1423'> +7.4894474e+04 </wgt>
<wgt id='1424'> +7.2846051e+04 </wgt>
<wgt id='1425'> +7.5052937e+04 </wgt>
<wgt id='1426'> +7.4738377e+04 </wgt>
<wgt id='1427'> +7.4331078e+04 </wgt>
<wgt id='1428'> +7.5413674e+04 </wgt>
<wgt id='1429'> +7.5036316e+04 </wgt>
<wgt id='1430'> +7.4004926e+04 </wgt>
<wgt id='1431'> +7.4602682e+04 </wgt>
<wgt id='1432'> +7.4657242e+04 </wgt>
<wgt id='1433'> +7.4671337e+04 </wgt>
<wgt id='1434'> +7.4566799e+04 </wgt>
<wgt id='1435'> +7.4729028e+04 </wgt>
<wgt id='1436'> +7.4150709e+04 </wgt>
<wgt id='1437'> +7.4721783e+04 </wgt>
<wgt id='1438'> +7.4660607e+04 </wgt>
<wgt id='1439'> +7.4892305e+04 </wgt>
<wgt id='1440'> +7.4470125e+04 </wgt>
<wgt id='1441'> +7.4413751e+04 </wgt>
<wgt id='1442'> +7.4350308e+04 </wgt>
<wgt id='1443'> +7.4600921e+04 </wgt>
<wgt id='1444'> +7.4824848e+04 </wgt>
<wgt id='1445'> +7.4574342e+04 </wgt>
<wgt id='1446'> +7.4269740e+04 </wgt>
<wgt id='1447'> +7.4573572e+04 </wgt>
<wgt id='1448'> +7.4791842e+04 </wgt>
<wgt id='1449'> +7.4730494e+04 </wgt>
<wgt id='1450'> +7.4536427e+04 </wgt>
<wgt id='1451'> +7.4681857e+04 </wgt>
<wgt id='1452'> +7.4563586e+04 </wgt>
<wgt id='1453'> +7.4596128e+04 </wgt>
<wgt id='1454'> +7.4745327e+04 </wgt>
<wgt id='1455'> +7.4623906e+04 </wgt>
<wgt id='1456'> +7.4531793e+04 </wgt>
<wgt id='1457'> +7.4631931e+04 </wgt>
<wgt id='1458'> +7.4562385e+04 </wgt>
<wgt id='1459'> +7.4495061e+04 </wgt>
<wgt id='1460'> +7.4586468e+04 </wgt>
<wgt id='1461'> +7.4532399e+04 </wgt>
<wgt id='1462'> +7.4596261e+04 </wgt>
<wgt id='1463'> +7.4588171e+04 </wgt>
<wgt id='1464'> +7.4578530e+04 </wgt>
<wgt id='1465'> +7.4542827e+04 </wgt>
<wgt id='1466'> +7.4584371e+04 </wgt>
<wgt id='1467'> +7.4598752e+04 </wgt>
<wgt id='1468'> +7.4611075e+04 </wgt>
<wgt id='1469'> +7.4605705e+04 </wgt>
<wgt id='1470'> +7.4560122e+04 </wgt>
<wgt id='1471'> +7.4602990e+04 </wgt>
<wgt id='1472'> +7.4578186e+04 </wgt>
<wgt id='1473'> +7.4612122e+04 </wgt>
<wgt id='1474'> +7.4625439e+04 </wgt>
<wgt id='1475'> +7.4614252e+04 </wgt>
<wgt id='1476'> +7.4564006e+04 </wgt>
<wgt id='1477'> +7.4605844e+04 </wgt>
<wgt id='1478'> +7.4623009e+04 </wgt>
<wgt id='1479'> +7.4624400e+04 </wgt>
<wgt id='1480'> +7.4627381e+04 </wgt>
<wgt id='1481'> +7.4617130e+04 </wgt>
<wgt id='1482'> +7.5036316e+04 </wgt>
<wgt id='1483'> +7.4004926e+04 </wgt>
<wgt id='1484'> +7.3718841e+04 </wgt>
<wgt id='1485'> +7.4128671e+04 </wgt>
<wgt id='1486'> +7.4317753e+04 </wgt>
<wgt id='1487'> +7.3231184e+04 </wgt>
<wgt id='1488'> +7.3235048e+04 </wgt>
<wgt id='1489'> +7.3446743e+04 </wgt>
<wgt id='1490'> +7.5699906e+04 </wgt>
<wgt id='1491'> +7.3124325e+04 </wgt>
<wgt id='1492'> +7.2796286e+04 </wgt>
<wgt id='1493'> +7.4313820e+04 </wgt>
<wgt id='1494'> +7.3205346e+04 </wgt>
<wgt id='1495'> +7.2911377e+04 </wgt>
<wgt id='1496'> +7.3288790e+04 </wgt>
<wgt id='1497'> +7.2780472e+04 </wgt>
<wgt id='1498'> +7.5489764e+04 </wgt>
<wgt id='1499'> +7.3589085e+04 </wgt>
<wgt id='1500'> +7.4630388e+04 </wgt>
<wgt id='1501'> +7.4297490e+04 </wgt>
<wgt id='1502'> +7.4257863e+04 </wgt>
<wgt id='1503'> +7.3190333e+04 </wgt>
<wgt id='1504'> +7.3853119e+04 </wgt>
<wgt id='1505'> +7.5161316e+04 </wgt>
<wgt id='1506'> +7.3909493e+04 </wgt>
<wgt id='1507'> +7.3757268e+04 </wgt>
<wgt id='1508'> +7.2798011e+04 </wgt>
<wgt id='1509'> +7.2773300e+04 </wgt>
<wgt id='1510'> +7.1607893e+04 </wgt>
<wgt id='1511'> +7.2427784e+04 </wgt>
<wgt id='1512'> +7.5077624e+04 </wgt>
<wgt id='1513'> +7.2320321e+04 </wgt>
<wgt id='1514'> +7.3233615e+04 </wgt>
<wgt id='1515'> +7.3343806e+04 </wgt>
<wgt id='1516'> +7.3516510e+04 </wgt>
<wgt id='1517'> +7.4092677e+04 </wgt>
<wgt id='1518'> +7.3901679e+04 </wgt>
<wgt id='1519'> +7.3306188e+04 </wgt>
<wgt id='1520'> +7.4165122e+04 </wgt>
<wgt id='1521'> +7.4367551e+04 </wgt>
<wgt id='1522'> +7.3122056e+04 </wgt>
<wgt id='1523'> +7.2656857e+04 </wgt>
<wgt id='1524'> +7.3754279e+04 </wgt>
<wgt id='1525'> +7.4929092e+04 </wgt>
<wgt id='1526'> +7.3176919e+04 </wgt>
<wgt id='1527'> +7.3227675e+04 </wgt>
<wgt id='1528'> +7.3469112e+04 </wgt>
<wgt id='1529'> +7.3285280e+04 </wgt>
<wgt id='1530'> +7.3229372e+04 </wgt>
<wgt id='1531'> +7.3648503e+04 </wgt>
<wgt id='1532'> +7.5345076e+04 </wgt>
<wgt id='1533'> +7.4215264e+04 </wgt>
<wgt id='1534'> +7.3564794e+04 </wgt>
<wgt id='1535'> +7.3165614e+04 </wgt>
<wgt id='1536'> +7.4224852e+04 </wgt>
<wgt id='1537'> +7.3004116e+04 </wgt>
<wgt id='1538'> +7.2796286e+04 </wgt>
<wgt id='1539'> +7.4242190e+04 </wgt>
<wgt id='1540'> +7.3287084e+04 </wgt>
<wgt id='1541'> +7.4798946e+04 </wgt>
<wgt id='1542'> +7.2974708e+04 </wgt>
<wgt id='1543'> +7.3929285e+04 </wgt>
<wgt id='1544'> +7.4501127e+04 </wgt>
<wgt id='1545'> +7.4548252e+04 </wgt>
<wgt id='1546'> +7.3875512e+04 </wgt>
<wgt id='1547'> +7.4060087e+04 </wgt>
<wgt id='1548'> +7.3257333e+04 </wgt>
<wgt id='1549'> +7.3018701e+04 </wgt>
<wgt id='1550'> +7.3313445e+04 </wgt>
<wgt id='1551'> +7.4292696e+04 </wgt>
<wgt id='1552'> +7.4097574e+04 </wgt>
<wgt id='1553'> +7.4056307e+04 </wgt>
<wgt id='1554'> +7.2845845e+04 </wgt>
<wgt id='1555'> +7.2703837e+04 </wgt>
<wgt id='1556'> +7.2979293e+04 </wgt>
<wgt id='1557'> +7.3112791e+04 </wgt>
<wgt id='1558'> +7.4274117e+04 </wgt>
<wgt id='1559'> +7.4050799e+04 </wgt>
<wgt id='1560'> +7.4633318e+04 </wgt>
<wgt id='1561'> +7.3686320e+04 </wgt>
<wgt id='1562'> +7.3633710e+04 </wgt>
<wgt id='1563'> +7.3638019e+04 </wgt>
<wgt id='1564'> +7.4283563e+04 </wgt>
<wgt id='1565'> +7.4095806e+04 </wgt>
<wgt id='1566'> +7.3354323e+04 </wgt>
<wgt id='1567'> +7.4883981e+04 </wgt>
<wgt id='1568'> +7.3318787e+04 </wgt>
<wgt id='1569'> +7.3801493e+04 </wgt>
<wgt id='1570'> +7.3688870e+04 </wgt>
<wgt id='1571'> +7.4431602e+04 </wgt>
<wgt id='1572'> +7.3953993e+04 </wgt>
<wgt id='1573'> +7.3668621e+04 </wgt>
<wgt id='1574'> +7.1537289e+04 </wgt>
<wgt id='1575'> +7.5788147e+04 </wgt>
<wgt id='1576'> +7.4323764e+04 </wgt>
<wgt id='1577'> +7.2755931e+04 </wgt>
<wgt id='1578'> +7.2985341e+04 </wgt>
<wgt id='1579'> +7.3820236e+04 </wgt>
<wgt id='1580'> +7.3955769e+04 </wgt>
<wgt id='1581'> +7.4298802e+04 </wgt>
<wgt id='1582'> +7.5021790e+04 </wgt>
<wgt id='1583'> +7.4111791e+04 </wgt>
<wgt id='1584'> +7.3235379e+04 </wgt>
<wgt id='1585'> +7.3412467e+04 </wgt>
<wgt id='1586'> +7.1421503e+04 </wgt>
<wgt id='1587'> +7.5355640e+04 </wgt>
<wgt id='1588'> +7.5036316e+04 </wgt>
<wgt id='1589'> +7.4730104e+04 </wgt>
<wgt id='1590'> +7.4199509e+04 </wgt>
<wgt id='1591'> +7.4004926e+04 </wgt>
<wgt id='1592'> +7.3526583e+04 </wgt>
<wgt id='1593'> +7.1075271e+04 </wgt>
<wgt id='1594'> +7.0692642e+04 </wgt>
<wgt id='1595'> +6.9239656e+04 </wgt>
<wgt id='1596'> +7.0229868e+04 </wgt>
<wgt id='1597'> +7.1964539e+04 </wgt>
<wgt id='1598'> +6.9063564e+04 </wgt>
<wgt id='1599'> +7.2385547e+04 </wgt>
<wgt id='1600'> +6.7755412e+04 </wgt>
<wgt id='1601'> +7.4018594e+04 </wgt>
<wgt id='1602'> +6.9397271e+04 </wgt>
<wgt id='1603'> +7.2599097e+04 </wgt>
<wgt id='1604'> +7.1685430e+04 </wgt>
<wgt id='1605'> +7.0749775e+04 </wgt>
<wgt id='1606'> +7.1233201e+04 </wgt>
<wgt id='1607'> +6.9973925e+04 </wgt>
<wgt id='1608'> +7.0721332e+04 </wgt>
<wgt id='1609'> +7.0275205e+04 </wgt>
<wgt id='1610'> +6.9849152e+04 </wgt>
<wgt id='1611'> +7.1826941e+04 </wgt>
<wgt id='1612'> +7.2039082e+04 </wgt>
<wgt id='1613'> +6.8506558e+04 </wgt>
<wgt id='1614'> +7.1127028e+04 </wgt>
<wgt id='1615'> +7.0939255e+04 </wgt>
<wgt id='1616'> +7.0351350e+04 </wgt>
<wgt id='1617'> +7.0998816e+04 </wgt>
<wgt id='1618'> +7.1389589e+04 </wgt>
<wgt id='1619'> +7.0406795e+04 </wgt>
<wgt id='1620'> +7.0022968e+04 </wgt>
<wgt id='1621'> +7.1485941e+04 </wgt>
<wgt id='1622'> +7.1177292e+04 </wgt>
<wgt id='1623'> +7.0042172e+04 </wgt>
<wgt id='1624'> +7.0687609e+04 </wgt>
<wgt id='1625'> +7.0526082e+04 </wgt>
<wgt id='1626'> +7.0289151e+04 </wgt>
<wgt id='1627'> +7.1027503e+04 </wgt>
<wgt id='1628'> +7.1722880e+04 </wgt>
<wgt id='1629'> +7.0557741e+04 </wgt>
<wgt id='1630'> +7.2552724e+04 </wgt>
<wgt id='1631'> +6.8893806e+04 </wgt>
<wgt id='1632'> +6.9881945e+04 </wgt>
<wgt id='1633'> +7.1640473e+04 </wgt>
<wgt id='1634'> +7.2305445e+04 </wgt>
<wgt id='1635'> +6.9573049e+04 </wgt>
<wgt id='1636'> +7.0162759e+04 </wgt>
<wgt id='1637'> +7.1873417e+04 </wgt>
<wgt id='1638'> +7.0745103e+04 </wgt>
<wgt id='1639'> +7.1147056e+04 </wgt>
<wgt id='1640'> +7.2456272e+04 </wgt>
<wgt id='1641'> +6.9363735e+04 </wgt>
<wgt id='1642'> +7.0552881e+04 </wgt>
<wgt id='1643'> +7.1037814e+04 </wgt>
<wgt id='1644'> +7.1931238e+04 </wgt>
<wgt id='1645'> +6.9016318e+04 </wgt>
<wgt id='1646'> +7.1521398e+04 </wgt>
<wgt id='1647'> +7.0572557e+04 </wgt>
<wgt id='1648'> +7.1161481e+04 </wgt>
<wgt id='1649'> +7.0921167e+04 </wgt>
<wgt id='1650'> +7.1009035e+04 </wgt>
<wgt id='1651'> +7.1192685e+04 </wgt>
<wgt id='1652'> +7.0913302e+04 </wgt>
<wgt id='1653'> +7.0973962e+04 </wgt>
<wgt id='1654'> +7.1222759e+04 </wgt>
<wgt id='1655'> +7.1419984e+04 </wgt>
<wgt id='1656'> +7.1059936e+04 </wgt>
<wgt id='1657'> +6.9689538e+04 </wgt>
<wgt id='1658'> +7.0724245e+04 </wgt>
<wgt id='1659'> +7.0590077e+04 </wgt>
<wgt id='1660'> +7.1192614e+04 </wgt>
<wgt id='1661'> +7.2201324e+04 </wgt>
<wgt id='1662'> +6.9609216e+04 </wgt>
<wgt id='1663'> +7.0272868e+04 </wgt>
<wgt id='1664'> +7.0249999e+04 </wgt>
<wgt id='1665'> +7.0165529e+04 </wgt>
<wgt id='1666'> +7.0760588e+04 </wgt>
<wgt id='1667'> +7.0470719e+04 </wgt>
<wgt id='1668'> +7.1278323e+04 </wgt>
<wgt id='1669'> +7.1545151e+04 </wgt>
<wgt id='1670'> +6.9844201e+04 </wgt>
<wgt id='1671'> +7.1358982e+04 </wgt>
<wgt id='1672'> +7.0411156e+04 </wgt>
<wgt id='1673'> +7.1531221e+04 </wgt>
<wgt id='1674'> +7.0654034e+04 </wgt>
<wgt id='1675'> +7.1371957e+04 </wgt>
<wgt id='1676'> +7.0919582e+04 </wgt>
<wgt id='1677'> +7.0480901e+04 </wgt>
<wgt id='1678'> +7.1324254e+04 </wgt>
<wgt id='1679'> +7.0541488e+04 </wgt>
<wgt id='1680'> +7.2220605e+04 </wgt>
<wgt id='1681'> +7.0522183e+04 </wgt>
<wgt id='1682'> +7.0822505e+04 </wgt>
<wgt id='1683'> +7.1616699e+04 </wgt>
<wgt id='1684'> +7.0463955e+04 </wgt>
<wgt id='1685'> +7.1648716e+04 </wgt>
<wgt id='1686'> +7.0006896e+04 </wgt>
<wgt id='1687'> +7.2418903e+04 </wgt>
<wgt id='1688'> +6.8854648e+04 </wgt>
<wgt id='1689'> +7.2483266e+04 </wgt>
<wgt id='1690'> +6.9749433e+04 </wgt>
<wgt id='1691'> +7.0217037e+04 </wgt>
<wgt id='1692'> +7.0861488e+04 </wgt>
<wgt id='1693'> +7.3105986e+04 </wgt>
<wgt id='1694'> +6.9546655e+04 </wgt>
<wgt id='1695'> +7.1200242e+04 </wgt>
<wgt id='1696'> +7.0458349e+04 </wgt>
<wgt id='1697'> +7.1949569e+04 </wgt>
<wgt id='1698'> +7.0139503e+04 </wgt>
<wgt id='1699'> +6.9385919e+04 </wgt>
<wgt id='1700'> +7.3074494e+04 </wgt>
<wgt id='1701'> +7.0308217e+04 </wgt>
<wgt id='1702'> +7.1932651e+04 </wgt>
<wgt id='1703'> +7.1864010e+04 </wgt>
<wgt id='1704'> +7.0486163e+04 </wgt>
<wgt id='1705'> +6.9795068e+04 </wgt>
<wgt id='1706'> +7.1815089e+04 </wgt>
<wgt id='1707'> +6.9602158e+04 </wgt>
<wgt id='1708'> +7.1984665e+04 </wgt>
<wgt id='1709'> +7.0577847e+04 </wgt>
<wgt id='1710'> +7.1707841e+04 </wgt>
<wgt id='1711'> +7.0176573e+04 </wgt>
<wgt id='1712'> +7.0910446e+04 </wgt>
<wgt id='1713'> +7.0378416e+04 </wgt>
<wgt id='1714'> +7.1269139e+04 </wgt>
<wgt id='1715'> +6.8395778e+04 </wgt>
<wgt id='1716'> +7.2137204e+04 </wgt>
<wgt id='1717'> +6.8529235e+04 </wgt>
<wgt id='1718'> +6.8616643e+04 </wgt>
<wgt id='1719'> +6.8416632e+04 </wgt>
<wgt id='1720'> +6.7937174e+04 </wgt>
<wgt id='1721'> +6.9072250e+04 </wgt>
<wgt id='1722'> +6.8200314e+04 </wgt>
<wgt id='1723'> +6.9069718e+04 </wgt>
<wgt id='1724'> +6.8875111e+04 </wgt>
<wgt id='1725'> +6.8248353e+04 </wgt>
<wgt id='1726'> +6.8462425e+04 </wgt>
<wgt id='1727'> +6.8598017e+04 </wgt>
<wgt id='1728'> +6.8005084e+04 </wgt>
<wgt id='1729'> +6.9038225e+04 </wgt>
<wgt id='1730'> +6.8693358e+04 </wgt>
<wgt id='1731'> +6.8412805e+04 </wgt>
<wgt id='1732'> +6.8899711e+04 </wgt>
<wgt id='1733'> +6.8899711e+04 </wgt>
<wgt id='1734'> +6.8568843e+04 </wgt>
<wgt id='1735'> +6.8499216e+04 </wgt>
<wgt id='1736'> +6.8308530e+04 </wgt>
<wgt id='1737'> +6.8839626e+04 </wgt>
<wgt id='1738'> +6.8630637e+04 </wgt>
<wgt id='1739'> +6.8324346e+04 </wgt>
<wgt id='1740'> +6.8478926e+04 </wgt>
<wgt id='1741'> +6.8651357e+04 </wgt>
<wgt id='1742'> +6.8682911e+04 </wgt>
<wgt id='1743'> +6.8369853e+04 </wgt>
<wgt id='1744'> +6.8385933e+04 </wgt>
<wgt id='1745'> +6.8919144e+04 </wgt>
<wgt id='1746'> +6.8301836e+04 </wgt>
<wgt id='1747'> +6.8647886e+04 </wgt>
<wgt id='1748'> +6.8694734e+04 </wgt>
<wgt id='1749'> +6.7944774e+04 </wgt>
<wgt id='1750'> +6.8628248e+04 </wgt>
<wgt id='1751'> +6.8423158e+04 </wgt>
<wgt id='1752'> +6.8351852e+04 </wgt>
<wgt id='1753'> +6.8768511e+04 </wgt>
<wgt id='1754'> +6.8588980e+04 </wgt>
<wgt id='1755'> +6.8495847e+04 </wgt>
<wgt id='1756'> +6.8446726e+04 </wgt>
<wgt id='1757'> +6.8774262e+04 </wgt>
<wgt id='1758'> +6.8785697e+04 </wgt>
<wgt id='1759'> +6.8260969e+04 </wgt>
<wgt id='1760'> +6.8916993e+04 </wgt>
<wgt id='1761'> +6.8217069e+04 </wgt>
<wgt id='1762'> +6.8447579e+04 </wgt>
<wgt id='1763'> +6.8325497e+04 </wgt>
<wgt id='1764'> +6.8422974e+04 </wgt>
<wgt id='1765'> +6.9051664e+04 </wgt>
<wgt id='1766'> +6.8551994e+04 </wgt>
<wgt id='1767'> +6.8478220e+04 </wgt>
<wgt id='1768'> +6.8456597e+04 </wgt>
<wgt id='1769'> +6.8565284e+04 </wgt>
<wgt id='1770'> +6.8085419e+04 </wgt>
<wgt id='1771'> +6.8640649e+04 </wgt>
<wgt id='1772'> +6.8456697e+04 </wgt>
<wgt id='1773'> +6.8751172e+04 </wgt>
<wgt id='1774'> +6.8045604e+04 </wgt>
<wgt id='1775'> +6.8844364e+04 </wgt>
<wgt id='1776'> +6.8652590e+04 </wgt>
<wgt id='1777'> +6.8478187e+04 </wgt>
<wgt id='1778'> +6.8062987e+04 </wgt>
<wgt id='1779'> +6.8394615e+04 </wgt>
<wgt id='1780'> +6.9705365e+04 </wgt>
<wgt id='1781'> +6.8565388e+04 </wgt>
<wgt id='1782'> +6.8529235e+04 </wgt>
<wgt id='1783'> +6.8594347e+04 </wgt>
<wgt id='1784'> +7.0696704e+04 </wgt>
<wgt id='1785'> +7.1315716e+04 </wgt>
<wgt id='1786'> +6.8955491e+04 </wgt>
<wgt id='1787'> +7.0724386e+04 </wgt>
<wgt id='1788'> +7.0022837e+04 </wgt>
<wgt id='1789'> +7.0897721e+04 </wgt>
<wgt id='1790'> +7.1322869e+04 </wgt>
<wgt id='1791'> +7.1102762e+04 </wgt>
<wgt id='1792'> +7.0090401e+04 </wgt>
<wgt id='1793'> +7.1201282e+04 </wgt>
<wgt id='1794'> +7.0485398e+04 </wgt>
<wgt id='1795'> +7.0426930e+04 </wgt>
<wgt id='1796'> +7.0882833e+04 </wgt>
<wgt id='1797'> +7.0932367e+04 </wgt>
<wgt id='1798'> +7.0982898e+04 </wgt>
<wgt id='1799'> +7.1158510e+04 </wgt>
<wgt id='1800'> +7.0781256e+04 </wgt>
<wgt id='1801'> +7.2235908e+04 </wgt>
<wgt id='1802'> +7.1149393e+04 </wgt>
<wgt id='1803'> +7.0621179e+04 </wgt>
<wgt id='1804'> +7.0989732e+04 </wgt>
<wgt id='1805'> +7.0434702e+04 </wgt>
<wgt id='1806'> +7.0655035e+04 </wgt>
<wgt id='1807'> +7.0710439e+04 </wgt>
<wgt id='1808'> +7.0748830e+04 </wgt>
<wgt id='1809'> +7.0778522e+04 </wgt>
<wgt id='1810'> +7.0800340e+04 </wgt>
<wgt id='1811'> +7.0758032e+04 </wgt>
<wgt id='1812'> +7.0735747e+04 </wgt>
<wgt id='1813'> +7.0876266e+04 </wgt>
<wgt id='1814'> +7.1021769e+04 </wgt>
<wgt id='1815'> +7.0618120e+04 </wgt>
<wgt id='1816'> +7.0802953e+04 </wgt>
<wgt id='1817'> +7.0807948e+04 </wgt>
<wgt id='1818'> +7.0755060e+04 </wgt>
<wgt id='1819'> +7.0675386e+04 </wgt>
<wgt id='1820'> +7.0737210e+04 </wgt>
<wgt id='1821'> +7.0866108e+04 </wgt>
<wgt id='1822'> +7.0732523e+04 </wgt>
<wgt id='1823'> +7.0878135e+04 </wgt>
<wgt id='1824'> +7.0588733e+04 </wgt>
<wgt id='1825'> +7.0611370e+04 </wgt>
<wgt id='1826'> +7.1257232e+04 </wgt>
<wgt id='1827'> +7.6511442e+04 </wgt>
<wgt id='1828'> +7.6748378e+04 </wgt>
<wgt id='1829'> +7.6306657e+04 </wgt>
<wgt id='1830'> +7.6391430e+04 </wgt>
<wgt id='1831'> +7.6662494e+04 </wgt>
<wgt id='1832'> +7.6604935e+04 </wgt>
<wgt id='1833'> +7.6448975e+04 </wgt>
<wgt id='1834'> +7.6137977e+04 </wgt>
<wgt id='1835'> +7.6897199e+04 </wgt>
<wgt id='1836'> +7.6930813e+04 </wgt>
<wgt id='1837'> +7.6118529e+04 </wgt>
<wgt id='1838'> +7.6704835e+04 </wgt>
<wgt id='1839'> +7.6353388e+04 </wgt>
<wgt id='1840'> +7.6320932e+04 </wgt>
<wgt id='1841'> +7.6735128e+04 </wgt>
<wgt id='1842'> +7.6438895e+04 </wgt>
<wgt id='1843'> +7.6638840e+04 </wgt>
<wgt id='1844'> +7.6583515e+04 </wgt>
<wgt id='1845'> +7.6452589e+04 </wgt>
<wgt id='1846'> +7.6638552e+04 </wgt>
<wgt id='1847'> +7.6421490e+04 </wgt>
<wgt id='1848'> +7.5896350e+04 </wgt>
<wgt id='1849'> +7.7043687e+04 </wgt>
<wgt id='1850'> +7.6522310e+04 </wgt>
<wgt id='1851'> +7.6518081e+04 </wgt>
<wgt id='1852'> +7.6559622e+04 </wgt>
<wgt id='1853'> +7.6307671e+04 </wgt>
<wgt id='1854'> +7.6573817e+04 </wgt>
<wgt id='1855'> +7.6502353e+04 </wgt>
<wgt id='1856'> +6.9268226e+04 </wgt>
<wgt id='1857'> +6.9256711e+04 </wgt>
<wgt id='1858'> +6.9194238e+04 </wgt>
<wgt id='1859'> +6.9359244e+04 </wgt>
<wgt id='1860'> +6.9270836e+04 </wgt>
<wgt id='1861'> +6.9402265e+04 </wgt>
<wgt id='1862'> +6.8898571e+04 </wgt>
<wgt id='1863'> +6.9409158e+04 </wgt>
<wgt id='1864'> +6.9021281e+04 </wgt>
<wgt id='1865'> +6.9110629e+04 </wgt>
<wgt id='1866'> +6.9370453e+04 </wgt>
<wgt id='1867'> +6.9200940e+04 </wgt>
<wgt id='1868'> +6.9250911e+04 </wgt>
<wgt id='1869'> +6.9397424e+04 </wgt>
<wgt id='1870'> +6.9143703e+04 </wgt>
<wgt id='1871'> +6.9420542e+04 </wgt>
<wgt id='1872'> +6.9124315e+04 </wgt>
<wgt id='1873'> +6.9247294e+04 </wgt>
<wgt id='1874'> +6.9220204e+04 </wgt>
<wgt id='1875'> +6.9407144e+04 </wgt>
<wgt id='1876'> +6.9141965e+04 </wgt>
<wgt id='1877'> +6.9040625e+04 </wgt>
<wgt id='1878'> +6.9223715e+04 </wgt>
<wgt id='1879'> +6.9238097e+04 </wgt>
<wgt id='1880'> +6.9387102e+04 </wgt>
<wgt id='1881'> +6.9237322e+04 </wgt>
<wgt id='1882'> +6.9300557e+04 </wgt>
<wgt id='1883'> +6.9274068e+04 </wgt>
<wgt id='1884'> +6.9321929e+04 </wgt>
<wgt id='1885'> +6.8921283e+04 </wgt>
<wgt id='1886'> +8.5741109e+04 </wgt>
<wgt id='1887'> +8.1609591e+04 </wgt>
<wgt id='1888'> +6.5039474e+04 </wgt>
<wgt id='1889'> +6.9582691e+04 </wgt>
</rwgt>
</event>
<event npLO=" -1 " npNLO=" 0 ">
 6      0 -7.4519530e+04 3.00000000e+01 7.55820760e-03 1.20526380e-01
        2 -1    0    0  502    0 +0.0000000000e+00 +0.0000000000e+00 +7.5710574343e+02 7.5710574343e+02 0.0000000000e+00 0.0000e+00 -1.0000e+00
       -1 -1    0    0    0  501 +0.0000000000e+00 +0.0000000000e+00 -2.3476924176e+00 2.3476924176e+00 0.0000000000e+00 0.0000e+00 1.0000e+00
       24  2    1    2    0    0 +4.2277793958e+00 -5.1425446251e-01 +7.3263151707e+02 7.3692074669e+02 7.9278676356e+01 0.0000e+00 0.0000e+00
      -15  1    3    3    0    0 +2.1872241683e+01 -1.2891518772e+01 +8.0375737951e+01 8.4308974568e+01 1.7770000000e+00 0.0000e+00 1.0000e+00
       16  1    3    3    0    0 -1.7644462288e+01 +1.2377264310e+01 +6.5225577912e+02 6.5261177213e+02 0.0000000000e+00 0.0000e+00 -1.0000e+00
       21  1    1    2  502  501 -4.2277793958e+00 +5.1425446251e-01 +2.2126533939e+01 2.2532689152e+01 0.0000000000e+00 0.0000e+00 -1.0000e+00
#aMCatNLO 2  0  0  1  2 0.84461280E+01 0.00000000E+00 -9  5  0 0.00000000E+00 0.00000000E+00 0.00000000E+00 0.00000000E+00 0.00000000E+00
<rwgt>
<wgt id='1001'> -7.4519530e+04 </wgt>
<wgt id='1002'> -6.7327291e+04 </wgt>
<wgt id='1003'> -8.3485249e+04 </wgt>
<wgt id='1004'> -8.2471164e+04 </wgt>
<wgt id='1005'> -7.4511476e+04 </wgt>
<wgt id='1006'> -9.2393574e+04 </wgt>
<wgt id='1007'> -6.5813772e+04 </wgt>
<wgt id='1008'> -5.9461769e+04 </wgt>
<wgt id='1009'> -7.3732070e+04 </wgt>
<wgt id='1010'> -7.4519530e+04 </wgt>
<wgt id='1011'> -7.4555923e+04 </wgt>
<wgt id='1012'> -7.4725825e+04 </wgt>
<wgt id='1013'> -7.3894006e+04 </wgt>
<wgt id='1014'> -7.4390443e+04 </wgt>
<wgt id='1015'> -7.4294231e+04 </wgt>
<wgt id='1016'> -7.4482636e+04 </wgt>
<wgt id='1017'> -7.4587673e+04 </wgt>
<wgt id='1018'> -7.4458540e+04 </wgt>
<wgt id='1019'> -7.4178958e+04 </wgt>
<wgt id='1020'> -7.4163931e+04 </wgt>
<wgt id='1021'> -7.4576737e+04 </wgt>
<wgt id='1022'> -7.4345528e+04 </wgt>
<wgt id='1023'> -7.4597087e+04 </wgt>
<wgt id='1024'> -7.4429523e+04 </wgt>
<wgt id='1025'> -7.4671587e+04 </wgt>
<wgt id='1026'> -7.4532690e+04 </wgt>
<wgt id='1027'> -7.4506045e+04 </wgt>
<wgt id='1028'> -7.4606479e+04 </wgt>
<wgt id='1029'> -7.4794413e+04 </wgt>
<wgt id='1030'> -7.4905103e+04 </wgt>
<wgt id='1031'> -7.4573571e+04 </wgt>
<wgt id='1032'> -7.4509562e+04 </wgt>
<wgt id='1033'> -7.4430754e+04 </wgt>
<wgt id='1034'> -7.4715343e+04 </wgt>
<wgt id='1035'> -7.4488847e+04 </wgt>
<wgt id='1036'> -7.4362292e+04 </wgt>
<wgt id='1037'> -7.4621934e+04 </wgt>
<wgt id='1038'> -7.4653773e+04 </wgt>
<wgt id='1039'> -7.4817942e+04 </wgt>
<wgt id='1040'> -7.4380219e+04 </wgt>
<wgt id='1041'> -7.5004659e+04 </wgt>
<wgt id='1042'> -7.4574291e+04 </wgt>
<wgt id='1043'> -7.4564956e+04 </wgt>
<wgt id='1044'> -7.4685191e+04 </wgt>
<wgt id='1045'> -7.4492604e+04 </wgt>
<wgt id='1046'> -7.4330388e+04 </wgt>
<wgt id='1047'> -7.4728988e+04 </wgt>
<wgt id='1048'> -7.4499123e+04 </wgt>
<wgt id='1049'> -7.4488897e+04 </wgt>
<wgt id='1050'> -7.4661186e+04 </wgt>
<wgt id='1051'> -7.4790916e+04 </wgt>
<wgt id='1052'> -7.4575123e+04 </wgt>
<wgt id='1053'> -7.4600644e+04 </wgt>
<wgt id='1054'> -7.4337547e+04 </wgt>
<wgt id='1055'> -7.4492736e+04 </wgt>
<wgt id='1056'> -7.4442303e+04 </wgt>
<wgt id='1057'> -7.4436702e+04 </wgt>
<wgt id='1058'> -7.4354722e+04 </wgt>
<wgt id='1059'> -7.4549855e+04 </wgt>
<wgt id='1060'> -7.4424804e+04 </wgt>
<wgt id='1061'> -7.4461867e+04 </wgt>
<wgt id='1062'> -7.4556162e+04 </wgt>
<wgt id='1063'> -7.4534111e+04 </wgt>
<wgt id='1064'> -7.4601696e+04 </wgt>
<wgt id='1065'> -7.4572000e+04 </wgt>
<wgt id='1066'> -7.4611349e+04 </wgt>
<wgt id='1067'> -7.4597031e+04 </wgt>
<wgt id='1068'> -7.4528483e+04 </wgt>
<wgt id='1069'> -7.4563876e+04 </wgt>
<wgt id='1070'> -7.4483043e+04 </wgt>
<wgt id='1071'> -7.4577739e+04 </wgt>
<wgt id='1072'> -7.4466594e+04 </wgt>
<wgt id='1073'> -7.4484269e+04 </wgt>
<wgt id='1074'> -7.4458737e+04 </wgt>
<wgt id='1075'> -7.4536006e+04 </wgt>
<wgt id='1076'> -7.4459377e+04 </wgt>
<wgt id='1077'> -7.4555295e+04 </wgt>
<wgt id='1078'> -7.4485152e+04 </wgt>
<wgt id='1079'> -7.4541246e+04 </wgt>
<wgt id='1080'> -7.4447432e+04 </wgt>
<wgt id='1081'> -7.4521370e+04 </wgt>
<wgt id='1082'> -7.4563708e+04 </wgt>
<wgt id='1083'> -7.4518007e+04 </wgt>
<wgt id='1084'> -7.4529943e+04 </wgt>
<wgt id='1085'> -7.4496257e+04 </wgt>
<wgt id='1086'> -7.4582384e+04 </wgt>
<wgt id='1087'> -7.4574586e+04 </wgt>
<wgt id='1088'> -7.4529558e+04 </wgt>
<wgt id='1089'> -7.4558751e+04 </wgt>
<wgt id='1090'> -7.4545495e+04 </wgt>
<wgt id='1091'> -7.4484288e+04 </wgt>
<wgt id='1092'> -7.4511671e+04 </wgt>
<wgt id='1093'> -7.4515240e+04 </wgt>
<wgt id='1094'> -7.4553849e+04 </wgt>
<wgt id='1095'> -7.4531467e+04 </wgt>
<wgt id='1096'> -7.4472748e+04 </wgt>
<wgt id='1097'> -7.4504462e+04 </wgt>
<wgt id='1098'> -7.4468152e+04 </wgt>
<wgt id='1099'> -7.4493502e+04 </wgt>
<wgt id='1100'> -7.4584330e+04 </wgt>
<wgt id='1101'> -7.4556766e+04 </wgt>
<wgt id='1102'> -7.4555095e+04 </wgt>
<wgt id='1103'> -7.4515442e+04 </wgt>
<wgt id='1104'> -7.4488674e+04 </wgt>
<wgt id='1105'> -7.4586783e+04 </wgt>
<wgt id='1106'> -7.4526320e+04 </wgt>
<wgt id='1107'> -7.4512866e+04 </wgt>
<wgt id='1108'> -7.4534695e+04 </wgt>
<wgt id='1109'> -7.4547023e+04 </wgt>
<wgt id='1110'> -7.4519529e+04 </wgt>
<wgt id='1111'> -7.2439116e+04 </wgt>
<wgt id='1112'> -7.6389261e+04 </wgt>
<wgt id='1113'> -7.4519529e+04 </wgt>
<wgt id='1114'> -7.4429632e+04 </wgt>
<wgt id='1115'> -7.7278157e+04 </wgt>
<wgt id='1116'> -7.1879347e+04 </wgt>
<wgt id='1117'> -7.3711089e+04 </wgt>
<wgt id='1118'> -7.2516266e+04 </wgt>
<wgt id='1119'> -7.4730591e+04 </wgt>
<wgt id='1120'> -7.7125415e+04 </wgt>
<wgt id='1121'> -7.4053247e+04 </wgt>
<wgt id='1122'> -7.3710531e+04 </wgt>
<wgt id='1123'> -7.1807301e+04 </wgt>
<wgt id='1124'> -7.3984099e+04 </wgt>
<wgt id='1125'> -7.3440535e+04 </wgt>
<wgt id='1126'> -7.4964245e+04 </wgt>
<wgt id='1127'> -7.4929717e+04 </wgt>
<wgt id='1128'> -7.5277678e+04 </wgt>
<wgt id='1129'> -7.3736582e+04 </wgt>
<wgt id='1130'> -7.3915354e+04 </wgt>
<wgt id='1131'> -7.4302813e+04 </wgt>
<wgt id='1132'> -7.6155601e+04 </wgt>
<wgt id='1133'> -7.4482476e+04 </wgt>
<wgt id='1134'> -7.5297508e+04 </wgt>
<wgt id='1135'> -7.6666046e+04 </wgt>
<wgt id='1136'> -7.6944129e+04 </wgt>
<wgt id='1137'> -7.3313017e+04 </wgt>
<wgt id='1138'> -7.5635901e+04 </wgt>
<wgt id='1139'> -7.3985937e+04 </wgt>
<wgt id='1140'> -7.5373761e+04 </wgt>
<wgt id='1141'> -7.5281570e+04 </wgt>
<wgt id='1142'> -7.4234017e+04 </wgt>
<wgt id='1143'> -7.6819920e+04 </wgt>
<wgt id='1144'> -7.2397319e+04 </wgt>
<wgt id='1145'> -7.5025304e+04 </wgt>
<wgt id='1146'> -7.5500480e+04 </wgt>
<wgt id='1147'> -7.3159106e+04 </wgt>
<wgt id='1148'> -7.3254375e+04 </wgt>
<wgt id='1149'> -7.5168652e+04 </wgt>
<wgt id='1150'> -7.3278756e+04 </wgt>
<wgt id='1151'> -7.4539699e+04 </wgt>
<wgt id='1152'> -7.7300606e+04 </wgt>
<wgt id='1153'> -7.5357149e+04 </wgt>
<wgt id='1154'> -7.4717135e+04 </wgt>
<wgt id='1155'> -7.5476275e+04 </wgt>
<wgt id='1156'> -7.4020725e+04 </wgt>
<wgt id='1157'> -7.4793332e+04 </wgt>
<wgt id='1158'> -7.4122881e+04 </wgt>
<wgt id='1159'> -7.4286573e+04 </wgt>
<wgt id='1160'> -7.6389949e+04 </wgt>
<wgt id='1161'> -7.1994842e+04 </wgt>
<wgt id='1162'> -7.7496841e+04 </wgt>
<wgt id='1163'> -7.2912702e+04 </wgt>
<wgt id='1164'> -7.3513307e+04 </wgt>
<wgt id='1165'> -7.5470884e+04 </wgt>
<wgt id='1166'> -7.6475390e+04 </wgt>
<wgt id='1167'> -7.6012204e+04 </wgt>
<wgt id='1168'> -7.3273240e+04 </wgt>
<wgt id='1169'> -7.3710358e+04 </wgt>
<wgt id='1170'> -7.4048952e+04 </wgt>
<wgt id='1171'> -7.5341121e+04 </wgt>
<wgt id='1172'> -7.6039746e+04 </wgt>
<wgt id='1173'> -7.2198054e+04 </wgt>
<wgt id='1174'> -7.5559935e+04 </wgt>
<wgt id='1175'> -7.3698160e+04 </wgt>
<wgt id='1176'> -7.4434371e+04 </wgt>
<wgt id='1177'> -7.2260960e+04 </wgt>
<wgt id='1178'> -7.5067919e+04 </wgt>
<wgt id='1179'> -7.3778100e+04 </wgt>
<wgt id='1180'> -7.4176042e+04 </wgt>
<wgt id='1181'> -7.5938990e+04 </wgt>
<wgt id='1182'> -7.6381307e+04 </wgt>
<wgt id='1183'> -7.5851232e+04 </wgt>
<wgt id='1184'> -7.4751373e+04 </wgt>
<wgt id='1185'> -7.3393728e+04 </wgt>
<wgt id='1186'> -7.2316614e+04 </wgt>
<wgt id='1187'> -7.5069456e+04 </wgt>
<wgt id='1188'> -7.3352189e+04 </wgt>
<wgt id='1189'> -7.4390569e+04 </wgt>
<wgt id='1190'> -7.4334073e+04 </wgt>
<wgt id='1191'> -7.6238939e+04 </wgt>
<wgt id='1192'> -7.3094701e+04 </wgt>
<wgt id='1193'> -7.3161997e+04 </wgt>
<wgt id='1194'> -7.4519393e+04 </wgt>
<wgt id='1195'> -7.3736582e+04 </wgt>
<wgt id='1196'> -7.3199324e+04 </wgt>
<wgt id='1197'> -7.4057877e+04 </wgt>
<wgt id='1198'> -7.5904023e+04 </wgt>
<wgt id='1199'> -7.6012450e+04 </wgt>
<wgt id='1200'> -7.4935175e+04 </wgt>
<wgt id='1201'> -7.4094444e+04 </wgt>
<wgt id='1202'> -7.1096939e+04 </wgt>
<wgt id='1203'> -7.3797117e+04 </wgt>
<wgt id='1204'> -7.5231668e+04 </wgt>
<wgt id='1205'> -7.5212007e+04 </wgt>
<wgt id='1206'> -7.4539680e+04 </wgt>
<wgt id='1207'> -7.5406197e+04 </wgt>
<wgt id='1208'> -7.2955105e+04 </wgt>
<wgt id='1209'> -7.6343146e+04 </wgt>
<wgt id='1210'> -7.1447236e+04 </wgt>
<wgt id='1211'> -7.5105290e+04 </wgt>
<wgt id='1212'> -7.4340239e+04 </wgt>
<wgt id='1213'> -7.4799310e+04 </wgt>
<wgt id='1214'> -7.4463845e+04 </wgt>
<wgt id='1215'> -6.4755905e+04 </wgt>
<wgt id='1216'> -6.6433497e+04 </wgt>
<wgt id='1217'> -6.8487937e+04 </wgt>
<wgt id='1218'> -7.0567087e+04 </wgt>
<wgt id='1219'> -7.3739697e+04 </wgt>
<wgt id='1220'> -7.5444344e+04 </wgt>
<wgt id='1221'> -7.8735066e+04 </wgt>
<wgt id='1222'> -8.0683168e+04 </wgt>
<wgt id='1223'> -7.2821191e+04 </wgt>
<wgt id='1224'> -7.2493854e+04 </wgt>
<wgt id='1225'> -7.3345211e+04 </wgt>
<wgt id='1226'> -7.2455635e+04 </wgt>
<wgt id='1227'> -7.3038577e+04 </wgt>
<wgt id='1228'> -7.2850137e+04 </wgt>
<wgt id='1229'> -7.2369535e+04 </wgt>
<wgt id='1230'> -7.3082221e+04 </wgt>
<wgt id='1231'> -7.3314541e+04 </wgt>
<wgt id='1232'> -7.3100109e+04 </wgt>
<wgt id='1233'> -7.2735954e+04 </wgt>
<wgt id='1234'> -7.2669948e+04 </wgt>
<wgt id='1235'> -7.2983186e+04 </wgt>
<wgt id='1236'> -7.3021376e+04 </wgt>
<wgt id='1237'> -7.2634416e+04 </wgt>
<wgt id='1238'> -7.3053153e+04 </wgt>
<wgt id='1239'> -7.3021820e+04 </wgt>
<wgt id='1240'> -7.2868317e+04 </wgt>
<wgt id='1241'> -7.2936239e+04 </wgt>
<wgt id='1242'> -7.2914920e+04 </wgt>
<wgt id='1243'> -7.2774663e+04 </wgt>
<wgt id='1244'> -7.2816230e+04 </wgt>
<wgt id='1245'> -7.2847017e+04 </wgt>
<wgt id='1246'> -7.2766316e+04 </wgt>
<wgt id='1247'> -7.2968013e+04 </wgt>
<wgt id='1248'> -7.2661221e+04 </wgt>
<wgt id='1249'> -7.2851201e+04 </wgt>
<wgt id='1250'> -7.2796890e+04 </wgt>
<wgt id='1251'> -7.2983678e+04 </wgt>
<wgt id='1252'> -7.3087850e+04 </wgt>
<wgt id='1253'> -7.2106827e+04 </wgt>
<wgt id='1254'> -7.2468257e+04 </wgt>
<wgt id='1255'> -7.3021302e+04 </wgt>
<wgt id='1256'> -7.2925288e+04 </wgt>
<wgt id='1257'> -7.2758264e+04 </wgt>
<wgt id='1258'> -7.2963167e+04 </wgt>
<wgt id='1259'> -7.2922428e+04 </wgt>
<wgt id='1260'> -7.2613503e+04 </wgt>
<wgt id='1261'> -7.2852271e+04 </wgt>
<wgt id='1262'> -7.2865052e+04 </wgt>
<wgt id='1263'> -7.2796278e+04 </wgt>
<wgt id='1264'> -7.2968674e+04 </wgt>
<wgt id='1265'> -7.2961591e+04 </wgt>
<wgt id='1266'> -7.2649860e+04 </wgt>
<wgt id='1267'> -7.2829670e+04 </wgt>
<wgt id='1268'> -7.2863326e+04 </wgt>
<wgt id='1269'> -7.2753319e+04 </wgt>
<wgt id='1270'> -7.2784418e+04 </wgt>
<wgt id='1271'> -7.2917916e+04 </wgt>
<wgt id='1272'> -7.2800171e+04 </wgt>
<wgt id='1273'> -7.2767412e+04 </wgt>
<wgt id='1274'> -7.2871176e+04 </wgt>
<wgt id='1275'> -7.2914001e+04 </wgt>
<wgt id='1276'> -7.2762083e+04 </wgt>
<wgt id='1277'> -7.2833944e+04 </wgt>
<wgt id='1278'> -7.2784753e+04 </wgt>
<wgt id='1279'> -7.2740233e+04 </wgt>
<wgt id='1280'> -7.2856469e+04 </wgt>
<wgt id='1281'> -7.2791632e+04 </wgt>
<wgt id='1282'> -7.2833057e+04 </wgt>
<wgt id='1283'> -7.2804874e+04 </wgt>
<wgt id='1284'> -7.2793024e+04 </wgt>
<wgt id='1285'> -7.2712703e+04 </wgt>
<wgt id='1286'> -7.2845816e+04 </wgt>
<wgt id='1287'> -7.2752231e+04 </wgt>
<wgt id='1288'> -7.2801832e+04 </wgt>
<wgt id='1289'> -7.2829972e+04 </wgt>
<wgt id='1290'> -7.2714493e+04 </wgt>
<wgt id='1291'> -7.2860131e+04 </wgt>
<wgt id='1292'> -7.2795433e+04 </wgt>
<wgt id='1293'> -7.2739460e+04 </wgt>
<wgt id='1294'> -7.2815529e+04 </wgt>
<wgt id='1295'> -7.2777541e+04 </wgt>
<wgt id='1296'> -7.2807516e+04 </wgt>
<wgt id='1297'> -7.2959629e+04 </wgt>
<wgt id='1298'> -7.2826455e+04 </wgt>
<wgt id='1299'> -7.2839075e+04 </wgt>
<wgt id='1300'> -7.2758148e+04 </wgt>
<wgt id='1301'> -7.2841524e+04 </wgt>
<wgt id='1302'> -7.2843223e+04 </wgt>
<wgt id='1303'> -7.2837920e+04 </wgt>
<wgt id='1304'> -7.2950616e+04 </wgt>
<wgt id='1305'> -7.2798120e+04 </wgt>
<wgt id='1306'> -7.2860969e+04 </wgt>
<wgt id='1307'> -7.2760112e+04 </wgt>
<wgt id='1308'> -7.2821129e+04 </wgt>
<wgt id='1309'> -7.2804324e+04 </wgt>
<wgt id='1310'> -7.2855825e+04 </wgt>
<wgt id='1311'> -7.2804490e+04 </wgt>
<wgt id='1312'> -7.2828680e+04 </wgt>
<wgt id='1313'> -7.2855566e+04 </wgt>
<wgt id='1314'> -7.2862100e+04 </wgt>
<wgt id='1315'> -7.2853098e+04 </wgt>
<wgt id='1316'> -7.2830352e+04 </wgt>
<wgt id='1317'> -7.2790631e+04 </wgt>
<wgt id='1318'> -7.2857893e+04 </wgt>
<wgt id='1319'> -7.2760027e+04 </wgt>
<wgt id='1320'> -7.2793252e+04 </wgt>
<wgt id='1321'> -7.2854416e+04 </wgt>
<wgt id='1322'> -7.2814805e+04 </wgt>
<wgt id='1323'> -7.2847650e+04 </wgt>
<wgt id='1324'> -7.0783210e+04 </wgt>
<wgt id='1325'> -7.4850259e+04 </wgt>
<wgt id='1326'> -7.3933030e+04 </wgt>
<wgt id='1327'> -7.1216957e+04 </wgt>
<wgt id='1328'> -7.4214544e+04 </wgt>
<wgt id='1329'> -7.4218114e+04 </wgt>
<wgt id='1330'> -7.4170784e+04 </wgt>
<wgt id='1331'> -7.4321713e+04 </wgt>
<wgt id='1332'> -7.4575635e+04 </wgt>
<wgt id='1333'> -7.4584371e+04 </wgt>
<wgt id='1334'> -7.2291733e+04 </wgt>
<wgt id='1335'> -7.3357700e+04 </wgt>
<wgt id='1336'> -7.4970126e+04 </wgt>
<wgt id='1337'> -7.4268550e+04 </wgt>
<wgt id='1338'> -7.4402223e+04 </wgt>
<wgt id='1339'> -7.4707657e+04 </wgt>
<wgt id='1340'> -7.4390606e+04 </wgt>
<wgt id='1341'> -7.3290090e+04 </wgt>
<wgt id='1342'> -7.4282363e+04 </wgt>
<wgt id='1343'> -7.4153411e+04 </wgt>
<wgt id='1344'> -7.2435356e+04 </wgt>
<wgt id='1345'> -7.6054887e+04 </wgt>
<wgt id='1346'> -7.4061124e+04 </wgt>
<wgt id='1347'> -7.5162239e+04 </wgt>
<wgt id='1348'> -7.3650468e+04 </wgt>
<wgt id='1349'> -7.4074464e+04 </wgt>
<wgt id='1350'> -7.2306939e+04 </wgt>
<wgt id='1351'> -7.3464874e+04 </wgt>
<wgt id='1352'> -7.3629011e+04 </wgt>
<wgt id='1353'> -7.4199436e+04 </wgt>
<wgt id='1354'> -7.5387945e+04 </wgt>
<wgt id='1355'> -7.4637143e+04 </wgt>
<wgt id='1356'> -7.4621612e+04 </wgt>
<wgt id='1357'> -7.3833733e+04 </wgt>
<wgt id='1358'> -7.3896120e+04 </wgt>
<wgt id='1359'> -7.5022932e+04 </wgt>
<wgt id='1360'> -7.3519103e+04 </wgt>
<wgt id='1361'> -7.5704007e+04 </wgt>
<wgt id='1362'> -7.4645281e+04 </wgt>
<wgt id='1363'> -7.3709099e+04 </wgt>
<wgt id='1364'> -7.4352010e+04 </wgt>
<wgt id='1365'> -7.3281164e+04 </wgt>
<wgt id='1366'> -7.4202463e+04 </wgt>
<wgt id='1367'> -7.4441757e+04 </wgt>
<wgt id='1368'> -7.5209191e+04 </wgt>
<wgt id='1369'> -7.2913812e+04 </wgt>
<wgt id='1370'> -7.4268445e+04 </wgt>
<wgt id='1371'> -7.3932240e+04 </wgt>
<wgt id='1372'> -7.4517869e+04 </wgt>
<wgt id='1373'> -7.4168770e+04 </wgt>
<wgt id='1374'> -7.5158146e+04 </wgt>
<wgt id='1375'> -7.4986685e+04 </wgt>
<wgt id='1376'> -7.4323831e+04 </wgt>
<wgt id='1377'> -7.4203681e+04 </wgt>
<wgt id='1378'> -7.3200000e+04 </wgt>
<wgt id='1379'> -7.5470110e+04 </wgt>
<wgt id='1380'> -7.2911474e+04 </wgt>
<wgt id='1381'> -7.3489923e+04 </wgt>
<wgt id='1382'> -7.3402820e+04 </wgt>
<wgt id='1383'> -7.4564331e+04 </wgt>
<wgt id='1384'> -7.3920325e+04 </wgt>
<wgt id='1385'> -7.2501558e+04 </wgt>
<wgt id='1386'> -7.4583467e+04 </wgt>
<wgt id='1387'> -7.3923128e+04 </wgt>
<wgt id='1388'> -7.5169249e+04 </wgt>
<wgt id='1389'> -7.3638285e+04 </wgt>
<wgt id='1390'> -7.2302074e+04 </wgt>
<wgt id='1391'> -7.4415350e+04 </wgt>
<wgt id='1392'> -7.4225898e+04 </wgt>
<wgt id='1393'> -7.3059593e+04 </wgt>
<wgt id='1394'> -7.3281164e+04 </wgt>
<wgt id='1395'> -7.4307396e+04 </wgt>
<wgt id='1396'> -7.2423643e+04 </wgt>
<wgt id='1397'> -7.4672078e+04 </wgt>
<wgt id='1398'> -7.5597484e+04 </wgt>
<wgt id='1399'> -7.5027447e+04 </wgt>
<wgt id='1400'> -7.5879287e+04 </wgt>
<wgt id='1401'> -7.4680029e+04 </wgt>
<wgt id='1402'> -7.4462889e+04 </wgt>
<wgt id='1403'> -7.4034824e+04 </wgt>
<wgt id='1404'> -7.5489237e+04 </wgt>
<wgt id='1405'> -7.2551688e+04 </wgt>
<wgt id='1406'> -7.3654098e+04 </wgt>
<wgt id='1407'> -7.3972157e+04 </wgt>
<wgt id='1408'> -7.5777563e+04 </wgt>
<wgt id='1409'> -7.3839532e+04 </wgt>
<wgt id='1410'> -7.4116007e+04 </wgt>
<wgt id='1411'> -7.4702840e+04 </wgt>
<wgt id='1412'> -7.5488974e+04 </wgt>
<wgt id='1413'> -7.4661185e+04 </wgt>
<wgt id='1414'> -7.4740321e+04 </wgt>
<wgt id='1415'> -7.3313256e+04 </wgt>
<wgt id='1416'> -7.5183083e+04 </wgt>
<wgt id='1417'> -7.3518713e+04 </wgt>
<wgt id='1418'> -7.6011492e+04 </wgt>
<wgt id='1419'> -7.5348789e+04 </wgt>
<wgt id='1420'> -7.3737670e+04 </wgt>
<wgt id='1421'> -7.4252468e+04 </wgt>
<wgt id='1422'> -7.3749209e+04 </wgt>
<wgt id='1423'> -7.4616300e+04 </wgt>
<wgt id='1424'> -7.4118885e+04 </wgt>
<wgt id='1425'> -7.2831485e+04 </wgt>
<wgt id='1426'> -7.4611836e+04 </wgt>
<wgt id='1427'> -7.4884477e+04 </wgt>
<wgt id='1428'> -7.5103115e+04 </wgt>
<wgt id='1429'> -7.3424929e+04 </wgt>
<wgt id='1430'> -7.4952692e+04 </wgt>
<wgt id='1431'> -7.4151168e+04 </wgt>
<wgt id='1432'> -7.4734523e+04 </wgt>
<wgt id='1433'> -7.4165770e+04 </wgt>
<wgt id='1434'> -7.3957927e+04 </wgt>
<wgt id='1435'> -7.4006151e+04 </wgt>
<wgt id='1436'> -7.4084629e+04 </wgt>
<wgt id='1437'> -7.4274669e+04 </wgt>
<wgt id='1438'> -7.4288035e+04 </wgt>
<wgt id='1439'> -7.4024299e+04 </wgt>
<wgt id='1440'> -7.4167555e+04 </wgt>
<wgt id='1441'> -7.4110557e+04 </wgt>
<wgt id='1442'> -7.4280320e+04 </wgt>
<wgt id='1443'> -7.4163470e+04 </wgt>
<wgt id='1444'> -7.4010146e+04 </wgt>
<wgt id='1445'> -7.4086396e+04 </wgt>
<wgt id='1446'> -7.4152216e+04 </wgt>
<wgt id='1447'> -7.3917636e+04 </wgt>
<wgt id='1448'> -7.4302603e+04 </wgt>
<wgt id='1449'> -7.4137576e+04 </wgt>
<wgt id='1450'> -7.3838558e+04 </wgt>
<wgt id='1451'> -7.4132613e+04 </wgt>
<wgt id='1452'> -7.4129959e+04 </wgt>
<wgt id='1453'> -7.4162445e+04 </wgt>
<wgt id='1454'> -7.4137530e+04 </wgt>
<wgt id='1455'> -7.4057260e+04 </wgt>
<wgt id='1456'> -7.4085300e+04 </wgt>
<wgt id='1457'> -7.4261543e+04 </wgt>
<wgt id='1458'> -7.4182108e+04 </wgt>
<wgt id='1459'> -7.4177165e+04 </wgt>
<wgt id='1460'> -7.4064363e+04 </wgt>
<wgt id='1461'> -7.4116579e+04 </wgt>
<wgt id='1462'> -7.4137498e+04 </wgt>
<wgt id='1463'> -7.4105507e+04 </wgt>
<wgt id='1464'> -7.4113779e+04 </wgt>
<wgt id='1465'> -7.4142864e+04 </wgt>
<wgt id='1466'> -7.4143136e+04 </wgt>
<wgt id='1467'> -7.4077668e+04 </wgt>
<wgt id='1468'> -7.4137638e+04 </wgt>
<wgt id='1469'> -7.4125249e+04 </wgt>
<wgt id='1470'> -7.4191751e+04 </wgt>
<wgt id='1471'> -7.4141453e+04 </wgt>
<wgt id='1472'> -7.4174333e+04 </wgt>
<wgt id='1473'> -7.4152263e+04 </wgt>
<wgt id='1474'> -7.4103156e+04 </wgt>
<wgt id='1475'> -7.4141572e+04 </wgt>
<wgt id='1476'> -7.4192881e+04 </wgt>
<wgt id='1477'> -7.4095772e+04 </wgt>
<wgt id='1478'> -7.4149301e+04 </wgt>
<wgt id='1479'> -7.4067188e+04 </wgt>
<wgt id='1480'> -7.4202104e+04 </wgt>
<wgt id='1481'> -7.4122161e+04 </wgt>
<wgt id='1482'> -7.3424929e+04 </wgt>
<wgt id='1483'> -7.4952692e+04 </wgt>
<wgt id='1484'> -7.7525172e+04 </wgt>
<wgt id='1485'> -7.7472712e+04 </wgt>
<wgt id='1486'> -7.8091558e+04 </wgt>
<wgt id='1487'> -7.5990421e+04 </wgt>
<wgt id='1488'> -7.6815714e+04 </wgt>
<wgt id='1489'> -7.7703096e+04 </wgt>
<wgt id='1490'> -7.5411477e+04 </wgt>
<wgt id='1491'> -7.7790969e+04 </wgt>
<wgt id='1492'> -7.5406699e+04 </wgt>
<wgt id='1493'> -7.7649753e+04 </wgt>
<wgt id='1494'> -7.7172515e+04 </wgt>
<wgt id='1495'> -7.5967143e+04 </wgt>
<wgt id='1496'> -7.6733258e+04 </wgt>
<wgt id='1497'> -7.7309494e+04 </wgt>
<wgt id='1498'> -7.8266249e+04 </wgt>
<wgt id='1499'> -7.8021280e+04 </wgt>
<wgt id='1500'> -7.6930050e+04 </wgt>
<wgt id='1501'> -7.6815922e+04 </wgt>
<wgt id='1502'> -7.8169036e+04 </wgt>
<wgt id='1503'> -7.6856361e+04 </wgt>
<wgt id='1504'> -7.7639824e+04 </wgt>
<wgt id='1505'> -7.7668675e+04 </wgt>
<wgt id='1506'> -7.7409538e+04 </wgt>
<wgt id='1507'> -7.6726195e+04 </wgt>
<wgt id='1508'> -7.5340251e+04 </wgt>
<wgt id='1509'> -7.7089562e+04 </wgt>
<wgt id='1510'> -7.7927602e+04 </wgt>
<wgt id='1511'> -7.6418672e+04 </wgt>
<wgt id='1512'> -7.6521401e+04 </wgt>
<wgt id='1513'> -7.7080901e+04 </wgt>
<wgt id='1514'> -7.7588741e+04 </wgt>
<wgt id='1515'> -7.6907440e+04 </wgt>
<wgt id='1516'> -7.6046419e+04 </wgt>
<wgt id='1517'> -7.7870968e+04 </wgt>
<wgt id='1518'> -7.7500259e+04 </wgt>
<wgt id='1519'> -7.7844526e+04 </wgt>
<wgt id='1520'> -7.7618580e+04 </wgt>
<wgt id='1521'> -7.5771115e+04 </wgt>
<wgt id='1522'> -7.8337678e+04 </wgt>
<wgt id='1523'> -7.8233260e+04 </wgt>
<wgt id='1524'> -7.7371024e+04 </wgt>
<wgt id='1525'> -7.7724011e+04 </wgt>
<wgt id='1526'> -7.7573403e+04 </wgt>
<wgt id='1527'> -7.7846363e+04 </wgt>
<wgt id='1528'> -7.8272917e+04 </wgt>
<wgt id='1529'> -7.8768702e+04 </wgt>
<wgt id='1530'> -7.7365191e+04 </wgt>
<wgt id='1531'> -7.7041937e+04 </wgt>
<wgt id='1532'> -7.5899972e+04 </wgt>
<wgt id='1533'> -7.8238956e+04 </wgt>
<wgt id='1534'> -7.8277632e+04 </wgt>
<wgt id='1535'> -7.7061412e+04 </wgt>
<wgt id='1536'> -7.8037794e+04 </wgt>
<wgt id='1537'> -7.7306023e+04 </wgt>
<wgt id='1538'> -7.9463185e+04 </wgt>
<wgt id='1539'> -7.7885046e+04 </wgt>
<wgt id='1540'> -7.8463373e+04 </wgt>
<wgt id='1541'> -7.8069784e+04 </wgt>
<wgt id='1542'> -7.8604990e+04 </wgt>
<wgt id='1543'> -7.7934508e+04 </wgt>
<wgt id='1544'> -7.8796988e+04 </wgt>
<wgt id='1545'> -7.7829534e+04 </wgt>
<wgt id='1546'> -7.7255169e+04 </wgt>
<wgt id='1547'> -7.8457636e+04 </wgt>
<wgt id='1548'> -7.6827924e+04 </wgt>
<wgt id='1549'> -7.9016760e+04 </wgt>
<wgt id='1550'> -7.9127047e+04 </wgt>
<wgt id='1551'> -7.9393747e+04 </wgt>
<wgt id='1552'> -7.7274827e+04 </wgt>
<wgt id='1553'> -7.9522536e+04 </wgt>
<wgt id='1554'> -7.5730291e+04 </wgt>
<wgt id='1555'> -7.7910121e+04 </wgt>
<wgt id='1556'> -7.7797497e+04 </wgt>
<wgt id='1557'> -7.6786224e+04 </wgt>
<wgt id='1558'> -7.8298166e+04 </wgt>
<wgt id='1559'> -7.8340576e+04 </wgt>
<wgt id='1560'> -7.7222544e+04 </wgt>
<wgt id='1561'> -7.7875837e+04 </wgt>
<wgt id='1562'> -7.8180279e+04 </wgt>
<wgt id='1563'> -7.7284812e+04 </wgt>
<wgt id='1564'> -7.6973341e+04 </wgt>
<wgt id='1565'> -7.6361819e+04 </wgt>
<wgt id='1566'> -7.7844288e+04 </wgt>
<wgt id='1567'> -7.9438748e+04 </wgt>
<wgt id='1568'> -7.7647226e+04 </wgt>
<wgt id='1569'> -7.8464020e+04 </wgt>
<wgt id='1570'> -7.8915922e+04 </wgt>
<wgt id='1571'> -7.8703544e+04 </wgt>
<wgt id='1572'> -7.6548871e+04 </wgt>
<wgt id='1573'> -7.7896270e+04 </wgt>
<wgt id='1574'> -7.6614886e+04 </wgt>
<wgt id='1575'> -7.5891307e+04 </wgt>
<wgt id='1576'> -7.8374995e+04 </wgt>
<wgt id='1577'> -7.5844927e+04 </wgt>
<wgt id='1578'> -7.7531486e+04 </wgt>
<wgt id='1579'> -7.7181891e+04 </wgt>
<wgt id='1580'> -7.9101750e+04 </wgt>
<wgt id='1581'> -7.8291832e+04 </wgt>
<wgt id='1582'> -7.7431905e+04 </wgt>
<wgt id='1583'> -7.6798962e+04 </wgt>
<wgt id='1584'> -7.6491597e+04 </wgt>
<wgt id='1585'> -7.4342034e+04 </wgt>
<wgt id='1586'> -6.6129966e+04 </wgt>
<wgt id='1587'> -7.2391536e+04 </wgt>
<wgt id='1588'> -7.3424929e+04 </wgt>
<wgt id='1589'> -7.3728923e+04 </wgt>
<wgt id='1590'> -7.4343547e+04 </wgt>
<wgt id='1591'> -7.4952692e+04 </wgt>
<wgt id='1592'> -7.5594608e+04 </wgt>
<wgt id='1593'> -7.6196354e+04 </wgt>
<wgt id='1594'> -7.6772615e+04 </wgt>
<wgt id='1595'> -7.6502329e+04 </wgt>
<wgt id='1596'> -7.5822748e+04 </wgt>
<wgt id='1597'> -7.6612342e+04 </wgt>
<wgt id='1598'> -7.5359557e+04 </wgt>
<wgt id='1599'> -7.7090577e+04 </wgt>
<wgt id='1600'> -7.4892954e+04 </wgt>
<wgt id='1601'> -7.7399235e+04 </wgt>
<wgt id='1602'> -7.5950770e+04 </wgt>
<wgt id='1603'> -7.6598812e+04 </wgt>
<wgt id='1604'> -7.6959589e+04 </wgt>
<wgt id='1605'> -7.5718508e+04 </wgt>
<wgt id='1606'> -7.5423791e+04 </wgt>
<wgt id='1607'> -7.6643402e+04 </wgt>
<wgt id='1608'> -7.4936535e+04 </wgt>
<wgt id='1609'> -7.6980088e+04 </wgt>
<wgt id='1610'> -7.5998074e+04 </wgt>
<wgt id='1611'> -7.6181942e+04 </wgt>
<wgt id='1612'> -7.6655068e+04 </wgt>
<wgt id='1613'> -7.4992498e+04 </wgt>
<wgt id='1614'> -7.5752523e+04 </wgt>
<wgt id='1615'> -7.6968813e+04 </wgt>
<wgt id='1616'> -7.5458445e+04 </wgt>
<wgt id='1617'> -7.6587867e+04 </wgt>
<wgt id='1618'> -7.6371249e+04 </wgt>
<wgt id='1619'> -7.5767470e+04 </wgt>
<wgt id='1620'> -7.6808112e+04 </wgt>
<wgt id='1621'> -7.5748319e+04 </wgt>
<wgt id='1622'> -7.6819125e+04 </wgt>
<wgt id='1623'> -7.5514891e+04 </wgt>
<wgt id='1624'> -7.6525379e+04 </wgt>
<wgt id='1625'> -7.4833058e+04 </wgt>
<wgt id='1626'> -7.5575754e+04 </wgt>
<wgt id='1627'> -7.6639778e+04 </wgt>
<wgt id='1628'> -7.6766239e+04 </wgt>
<wgt id='1629'> -7.6257710e+04 </wgt>
<wgt id='1630'> -7.5888168e+04 </wgt>
<wgt id='1631'> -7.6079619e+04 </wgt>
<wgt id='1632'> -7.5609641e+04 </wgt>
<wgt id='1633'> -7.6739538e+04 </wgt>
<wgt id='1634'> -7.7122462e+04 </wgt>
<wgt id='1635'> -7.5415169e+04 </wgt>
<wgt id='1636'> -7.6216818e+04 </wgt>
<wgt id='1637'> -7.6864560e+04 </wgt>
<wgt id='1638'> -7.5936990e+04 </wgt>
<wgt id='1639'> -7.6257259e+04 </wgt>
<wgt id='1640'> -7.7387194e+04 </wgt>
<wgt id='1641'> -7.5347047e+04 </wgt>
<wgt id='1642'> -7.5522860e+04 </wgt>
<wgt id='1643'> -7.7004596e+04 </wgt>
<wgt id='1644'> -7.6987570e+04 </wgt>
<wgt id='1645'> -7.5137228e+04 </wgt>
<wgt id='1646'> -7.6173010e+04 </wgt>
<wgt id='1647'> -7.6852534e+04 </wgt>
<wgt id='1648'> -7.6908265e+04 </wgt>
<wgt id='1649'> -7.6609581e+04 </wgt>
<wgt id='1650'> -7.7654216e+04 </wgt>
<wgt id='1651'> -7.4590102e+04 </wgt>
<wgt id='1652'> -7.5526930e+04 </wgt>
<wgt id='1653'> -7.5856944e+04 </wgt>
<wgt id='1654'> -7.6540229e+04 </wgt>
<wgt id='1655'> -7.6899542e+04 </wgt>
<wgt id='1656'> -7.7127524e+04 </wgt>
<wgt id='1657'> -7.7561819e+04 </wgt>
<wgt id='1658'> -7.7356207e+04 </wgt>
<wgt id='1659'> -7.7006492e+04 </wgt>
<wgt id='1660'> -7.7406028e+04 </wgt>
<wgt id='1661'> -7.7715893e+04 </wgt>
<wgt id='1662'> -7.6426683e+04 </wgt>
<wgt id='1663'> -7.6871476e+04 </wgt>
<wgt id='1664'> -7.6826806e+04 </wgt>
<wgt id='1665'> -7.6338625e+04 </wgt>
<wgt id='1666'> -7.7286493e+04 </wgt>
<wgt id='1667'> -7.6591165e+04 </wgt>
<wgt id='1668'> -7.7550495e+04 </wgt>
<wgt id='1669'> -7.7412683e+04 </wgt>
<wgt id='1670'> -7.6587329e+04 </wgt>
<wgt id='1671'> -7.7125081e+04 </wgt>
<wgt id='1672'> -7.7403610e+04 </wgt>
<wgt id='1673'> -7.8312968e+04 </wgt>
<wgt id='1674'> -7.6412491e+04 </wgt>
<wgt id='1675'> -7.7974962e+04 </wgt>
<wgt id='1676'> -7.6626659e+04 </wgt>
<wgt id='1677'> -7.6799665e+04 </wgt>
<wgt id='1678'> -7.7558856e+04 </wgt>
<wgt id='1679'> -7.7253402e+04 </wgt>
<wgt id='1680'> -7.7786416e+04 </wgt>
<wgt id='1681'> -7.7234639e+04 </wgt>
<wgt id='1682'> -7.6645525e+04 </wgt>
<wgt id='1683'> -7.6954934e+04 </wgt>
<wgt id='1684'> -7.7335744e+04 </wgt>
<wgt id='1685'> -7.8303741e+04 </wgt>
<wgt id='1686'> -7.5976155e+04 </wgt>
<wgt id='1687'> -7.7978170e+04 </wgt>
<wgt id='1688'> -7.5929844e+04 </wgt>
<wgt id='1689'> -7.6582184e+04 </wgt>
<wgt id='1690'> -7.8121847e+04 </wgt>
<wgt id='1691'> -7.7399755e+04 </wgt>
<wgt id='1692'> -7.7152382e+04 </wgt>
<wgt id='1693'> -7.7686597e+04 </wgt>
<wgt id='1694'> -7.7149429e+04 </wgt>
<wgt id='1695'> -7.6890333e+04 </wgt>
<wgt id='1696'> -7.7805828e+04 </wgt>
<wgt id='1697'> -7.7627392e+04 </wgt>
<wgt id='1698'> -7.6963777e+04 </wgt>
<wgt id='1699'> -7.6604630e+04 </wgt>
<wgt id='1700'> -7.7750130e+04 </wgt>
<wgt id='1701'> -7.6724958e+04 </wgt>
<wgt id='1702'> -7.7765500e+04 </wgt>
<wgt id='1703'> -7.7243313e+04 </wgt>
<wgt id='1704'> -7.7519632e+04 </wgt>
<wgt id='1705'> -7.7028858e+04 </wgt>
<wgt id='1706'> -7.7429409e+04 </wgt>
<wgt id='1707'> -7.5708493e+04 </wgt>
<wgt id='1708'> -7.8143442e+04 </wgt>
<wgt id='1709'> -7.6797789e+04 </wgt>
<wgt id='1710'> -7.7745892e+04 </wgt>
<wgt id='1711'> -7.6978271e+04 </wgt>
<wgt id='1712'> -7.7395081e+04 </wgt>
<wgt id='1713'> -7.8384532e+04 </wgt>
<wgt id='1714'> -7.5591713e+04 </wgt>
<wgt id='1715'> -7.5255836e+04 </wgt>
<wgt id='1716'> -7.7112893e+04 </wgt>
<wgt id='1717'> -7.3419675e+04 </wgt>
<wgt id='1718'> -7.3601087e+04 </wgt>
<wgt id='1719'> -7.3187045e+04 </wgt>
<wgt id='1720'> -7.3460593e+04 </wgt>
<wgt id='1721'> -7.3382297e+04 </wgt>
<wgt id='1722'> -7.3398369e+04 </wgt>
<wgt id='1723'> -7.3454542e+04 </wgt>
<wgt id='1724'> -7.3592059e+04 </wgt>
<wgt id='1725'> -7.3279390e+04 </wgt>
<wgt id='1726'> -7.3267357e+04 </wgt>
<wgt id='1727'> -7.3576811e+04 </wgt>
<wgt id='1728'> -7.3078278e+04 </wgt>
<wgt id='1729'> -7.3751250e+04 </wgt>
<wgt id='1730'> -7.3329278e+04 </wgt>
<wgt id='1731'> -7.3483038e+04 </wgt>
<wgt id='1732'> -7.3914176e+04 </wgt>
<wgt id='1733'> -7.3914176e+04 </wgt>
<wgt id='1734'> -7.3231935e+04 </wgt>
<wgt id='1735'> -7.3542306e+04 </wgt>
<wgt id='1736'> -7.3063751e+04 </wgt>
<wgt id='1737'> -7.3906578e+04 </wgt>
<wgt id='1738'> -7.3688668e+04 </wgt>
<wgt id='1739'> -7.2922340e+04 </wgt>
<wgt id='1740'> -7.3308970e+04 </wgt>
<wgt id='1741'> -7.3682695e+04 </wgt>
<wgt id='1742'> -7.3492051e+04 </wgt>
<wgt id='1743'> -7.3328113e+04 </wgt>
<wgt id='1744'> -7.3320031e+04 </wgt>
<wgt id='1745'> -7.3688793e+04 </wgt>
<wgt id='1746'> -7.2923518e+04 </wgt>
<wgt id='1747'> -7.3673335e+04 </wgt>
<wgt id='1748'> -7.3584326e+04 </wgt>
<wgt id='1749'> -7.2813020e+04 </wgt>
<wgt id='1750'> -7.3332504e+04 </wgt>
<wgt id='1751'> -7.3512216e+04 </wgt>
<wgt id='1752'> -7.3386728e+04 </wgt>
<wgt id='1753'> -7.3462625e+04 </wgt>
<wgt id='1754'> -7.3349838e+04 </wgt>
<wgt id='1755'> -7.3447453e+04 </wgt>
<wgt id='1756'> -7.2985366e+04 </wgt>
<wgt id='1757'> -7.4502775e+04 </wgt>
<wgt id='1758'> -7.3673442e+04 </wgt>
<wgt id='1759'> -7.2919131e+04 </wgt>
<wgt id='1760'> -7.3792984e+04 </wgt>
<wgt id='1761'> -7.3107635e+04 </wgt>
<wgt id='1762'> -7.3396205e+04 </wgt>
<wgt id='1763'> -7.3565521e+04 </wgt>
<wgt id='1764'> -7.3320738e+04 </wgt>
<wgt id='1765'> -7.3835337e+04 </wgt>
<wgt id='1766'> -7.3404609e+04 </wgt>
<wgt id='1767'> -7.3526716e+04 </wgt>
<wgt id='1768'> -7.3521734e+04 </wgt>
<wgt id='1769'> -7.3364241e+04 </wgt>
<wgt id='1770'> -7.3165760e+04 </wgt>
<wgt id='1771'> -7.3838011e+04 </wgt>
<wgt id='1772'> -7.3501977e+04 </wgt>
<wgt id='1773'> -7.3159901e+04 </wgt>
<wgt id='1774'> -7.3220357e+04 </wgt>
<wgt id='1775'> -7.3533190e+04 </wgt>
<wgt id='1776'> -7.3658970e+04 </wgt>
<wgt id='1777'> -7.3314077e+04 </wgt>
<wgt id='1778'> -7.3545815e+04 </wgt>
<wgt id='1779'> -7.3513205e+04 </wgt>
<wgt id='1780'> -7.3648143e+04 </wgt>
<wgt id='1781'> -7.3633194e+04 </wgt>
<wgt id='1782'> -7.3419675e+04 </wgt>
<wgt id='1783'> -7.3421459e+04 </wgt>
<wgt id='1784'> -7.4360554e+04 </wgt>
<wgt id='1785'> -7.4182842e+04 </wgt>
<wgt id='1786'> -7.3248063e+04 </wgt>
<wgt id='1787'> -7.4341331e+04 </wgt>
<wgt id='1788'> -7.4552634e+04 </wgt>
<wgt id='1789'> -7.4420859e+04 </wgt>
<wgt id='1790'> -7.3987571e+04 </wgt>
<wgt id='1791'> -7.4294122e+04 </wgt>
<wgt id='1792'> -7.4042914e+04 </wgt>
<wgt id='1793'> -7.4494978e+04 </wgt>
<wgt id='1794'> -7.4762616e+04 </wgt>
<wgt id='1795'> -7.3508869e+04 </wgt>
<wgt id='1796'> -7.4351787e+04 </wgt>
<wgt id='1797'> -7.4462882e+04 </wgt>
<wgt id='1798'> -7.4229978e+04 </wgt>
<wgt id='1799'> -7.4929676e+04 </wgt>
<wgt id='1800'> -7.4687418e+04 </wgt>
<wgt id='1801'> -7.4840524e+04 </wgt>
<wgt id='1802'> -7.4499616e+04 </wgt>
<wgt id='1803'> -7.4568016e+04 </wgt>
<wgt id='1804'> -7.3606296e+04 </wgt>
<wgt id='1805'> -7.4369692e+04 </wgt>
<wgt id='1806'> -7.4178282e+04 </wgt>
<wgt id='1807'> -7.4396061e+04 </wgt>
<wgt id='1808'> -7.4376584e+04 </wgt>
<wgt id='1809'> -7.3623838e+04 </wgt>
<wgt id='1810'> -7.4282980e+04 </wgt>
<wgt id='1811'> -7.4206137e+04 </wgt>
<wgt id='1812'> -7.4406892e+04 </wgt>
<wgt id='1813'> -7.4312450e+04 </wgt>
<wgt id='1814'> -7.4254350e+04 </wgt>
<wgt id='1815'> -7.4303510e+04 </wgt>
<wgt id='1816'> -7.4342844e+04 </wgt>
<wgt id='1817'> -7.3994944e+04 </wgt>
<wgt id='1818'> -7.4357956e+04 </wgt>
<wgt id='1819'> -7.4153333e+04 </wgt>
<wgt id='1820'> -7.4341917e+04 </wgt>
<wgt id='1821'> -7.4237267e+04 </wgt>
<wgt id='1822'> -7.4149516e+04 </wgt>
<wgt id='1823'> -7.4306165e+04 </wgt>
<wgt id='1824'> -7.4421929e+04 </wgt>
<wgt id='1825'> -7.3371097e+04 </wgt>
<wgt id='1826'> -7.5548552e+04 </wgt>
<wgt id='1827'> -8.2918505e+04 </wgt>
<wgt id='1828'> -8.3056767e+04 </wgt>
<wgt id='1829'> -8.2817420e+04 </wgt>
<wgt id='1830'> -8.3098014e+04 </wgt>
<wgt id='1831'> -8.2774829e+04 </wgt>
<wgt id='1832'> -8.2833029e+04 </wgt>
<wgt id='1833'> -8.3039581e+04 </wgt>
<wgt id='1834'> -8.2550732e+04 </wgt>
<wgt id='1835'> -8.3305119e+04 </wgt>
<wgt id='1836'> -8.3278720e+04 </wgt>
<wgt id='1837'> -8.2575299e+04 </wgt>
<wgt id='1838'> -8.3174969e+04 </wgt>
<wgt id='1839'> -8.2694490e+04 </wgt>
<wgt id='1840'> -8.2624514e+04 </wgt>
<wgt id='1841'> -8.3262067e+04 </wgt>
<wgt id='1842'> -8.3010996e+04 </wgt>
<wgt id='1843'> -8.3300648e+04 </wgt>
<wgt id='1844'> -8.3137386e+04 </wgt>
<wgt id='1845'> -8.2716101e+04 </wgt>
<wgt id='1846'> -8.2966862e+04 </wgt>
<wgt id='1847'> -8.2892452e+04 </wgt>
<wgt id='1848'> -8.2331064e+04 </wgt>
<wgt id='1849'> -8.3465095e+04 </wgt>
<wgt id='1850'> -8.3170044e+04 </wgt>
<wgt id='1851'> -8.2669733e+04 </wgt>
<wgt id='1852'> -8.2691564e+04 </wgt>
<wgt id='1853'> -8.2936826e+04 </wgt>
<wgt id='1854'> -8.2656785e+04 </wgt>
<wgt id='1855'> -8.3031246e+04 </wgt>
<wgt id='1856'> -7.3025871e+04 </wgt>
<wgt id='1857'> -7.3007721e+04 </wgt>
<wgt id='1858'> -7.3029358e+04 </wgt>
<wgt id='1859'> -7.2998713e+04 </wgt>
<wgt id='1860'> -7.3026466e+04 </wgt>
<wgt id='1861'> -7.3034507e+04 </wgt>
<wgt id='1862'> -7.2809259e+04 </wgt>
<wgt id='1863'> -7.2948731e+04 </wgt>
<wgt id='1864'> -7.2856693e+04 </wgt>
<wgt id='1865'> -7.2848815e+04 </wgt>
<wgt id='1866'> -7.3301379e+04 </wgt>
<wgt id='1867'> -7.2942640e+04 </wgt>
<wgt id='1868'> -7.2962415e+04 </wgt>
<wgt id='1869'> -7.3055076e+04 </wgt>
<wgt id='1870'> -7.2954901e+04 </wgt>
<wgt id='1871'> -7.3036806e+04 </wgt>
<wgt id='1872'> -7.3019764e+04 </wgt>
<wgt id='1873'> -7.2949951e+04 </wgt>
<wgt id='1874'> -7.3108250e+04 </wgt>
<wgt id='1875'> -7.3120700e+04 </wgt>
<wgt id='1876'> -7.2760727e+04 </wgt>
<wgt id='1877'> -7.2883544e+04 </wgt>
<wgt id='1878'> -7.2912844e+04 </wgt>
<wgt id='1879'> -7.3271196e+04 </wgt>
<wgt id='1880'> -7.3218597e+04 </wgt>
<wgt id='1881'> -7.3195470e+04 </wgt>
<wgt id='1882'> -7.3018398e+04 </wgt>
<wgt id='1883'> -7.3074593e+04 </wgt>
<wgt id='1884'> -7.2859876e+04 </wgt>
<wgt id='1885'> -7.2412338e+04 </wgt>
<wgt id='1886'> -6.7210552e+04 </wgt>
<wgt id='1887'> -7.7124512e+04 </wgt>
<wgt id='1888'> -6.5433463e+04 </wgt>
<wgt id='1889'> -8.1946452e+04 </wgt>
</rwgt>
</event>
<event npLO=" -1 " npNLO=" 0 ">
 6      1 +7.4519530e+04 3.62343960e+01 7.55820760e-03 1.19249670e-01
        1 -1    0    0  502    0 +0.0000000000e+00 +0.0000000000e+00 +8.3239399986e+01 8.3239399986e+01 0.0000000000e+00 0.0000e+00 -1.0000e+00
       -2 -1    0    0    0  501 +0.0000000000e+00 +0.0000000000e+00 -3.4760515355e+01 3.4760515355e+01 0.0000000000e+00 0.0000e+00 1.0000e+00
      -24  2    1    2    0    0 -1.4276425734e+01 -1.3620065725e+01 +2.8043193235e+01 8.9593225902e+01 8.2771993564e+01 0.0000e+00 0.0000e+00
       11  1    3    3    0    0 +2.6805322908e+01 -1.9986760791e+01 +3.3894526800e+01 4.7611289524e+01 0.0000000000e+00 0.0000e+00 -1.0000e+00
      -12  1    3    3    0    0 -4.1081748643e+01 +6.3666950659e+00 -5.8513335645e+00 4.1981936379e+01 0.0000000000e+00 0.0000e+00 1.0000e+00
       21  1    1    2  502  501 +1.4276425734e+01 +1.3620065725e+01 +2.0435691395e+01 2.8406689439e+01 0.0000000000e+00 0.0000e+00 -1.0000e+00
#aMCatNLO 2  0  0  1  2 0.23269533E+02 0.00000000E+00 -9  5  0 0.00000000E+00 0.00000000E+00 0.00000000E+00 0.00000000E+00 0.00000000E+00
<rwgt>
<wgt id='1001'> +7.4519530e+04 </wgt>
<wgt id='1002'> +6.7399402e+04 </wgt>
<wgt id='1003'> +8.3373432e+04 </wgt>
<wgt id='1004'> +8.1823238e+04 </wgt>
<wgt id='1005'> +7.4005268e+04 </wgt>
<wgt id='1006'> +9.1544924e+04 </wgt>
<wgt id='1007'> +6.6379537e+04 </wgt>
<wgt id='1008'> +6.0037167e+04 </wgt>
<wgt id='1009'> +7.4266307e+04 </wgt>
<wgt id='1010'> +7.4519530e+04 </wgt>
<wgt id='1011'> +7.4442270e+04 </wgt>
<wgt id='1012'> +7.4413820e+04 </wgt>
<wgt id='1013'> +7.4009321e+04 </wgt>
<wgt id='1014'> +7.4807611e+04 </wgt>
<wgt id='1015'> +7.4259077e+04 </wgt>
<wgt id='1016'> +7.4371344e+04 </wgt>
<wgt id='1017'> +7.4609717e+04 </wgt>
<wgt id='1018'> +7.4210720e+04 </wgt>
<wgt id='1019'> +7.5045585e+04 </wgt>
<wgt id='1020'> +7.4085707e+04 </wgt>
<wgt id='1021'> +7.4450555e+04 </wgt>
<wgt id='1022'> +7.4689642e+04 </wgt>
<wgt id='1023'> +7.4695600e+04 </wgt>
<wgt id='1024'> +7.4825868e+04 </wgt>
<wgt id='1025'> +7.5358099e+04 </wgt>
<wgt id='1026'> +7.4162828e+04 </wgt>
<wgt id='1027'> +7.4468186e+04 </wgt>
<wgt id='1028'> +7.3894616e+04 </wgt>
<wgt id='1029'> +7.4628550e+04 </wgt>
<wgt id='1030'> +7.4776744e+04 </wgt>
<wgt id='1031'> +7.4422340e+04 </wgt>
<wgt id='1032'> +7.5021408e+04 </wgt>
<wgt id='1033'> +7.4097795e+04 </wgt>
<wgt id='1034'> +7.4050023e+04 </wgt>
<wgt id='1035'> +7.4071907e+04 </wgt>
<wgt id='1036'> +7.4281003e+04 </wgt>
<wgt id='1037'> +7.5283351e+04 </wgt>
<wgt id='1038'> +7.4767398e+04 </wgt>
<wgt id='1039'> +7.4423968e+04 </wgt>
<wgt id='1040'> +7.4652028e+04 </wgt>
<wgt id='1041'> +7.4842118e+04 </wgt>
<wgt id='1042'> +7.4277805e+04 </wgt>
<wgt id='1043'> +7.4662633e+04 </wgt>
<wgt id='1044'> +7.4584743e+04 </wgt>
<wgt id='1045'> +7.4553507e+04 </wgt>
<wgt id='1046'> +7.4477592e+04 </wgt>
<wgt id='1047'> +7.4481422e+04 </wgt>
<wgt id='1048'> +7.4686643e+04 </wgt>
<wgt id='1049'> +7.4674522e+04 </wgt>
<wgt id='1050'> +7.4682558e+04 </wgt>
<wgt id='1051'> +7.4758018e+04 </wgt>
<wgt id='1052'> +7.4659929e+04 </wgt>
<wgt id='1053'> +7.4347110e+04 </wgt>
<wgt id='1054'> +7.4416852e+04 </wgt>
<wgt id='1055'> +7.4504186e+04 </wgt>
<wgt id='1056'> +7.4613934e+04 </wgt>
<wgt id='1057'> +7.4444388e+04 </wgt>
<wgt id='1058'> +7.4546626e+04 </wgt>
<wgt id='1059'> +7.4439811e+04 </wgt>
<wgt id='1060'> +7.4458910e+04 </wgt>
<wgt id='1061'> +7.4425520e+04 </wgt>
<wgt id='1062'> +7.4598852e+04 </wgt>
<wgt id='1063'> +7.4440842e+04 </wgt>
<wgt id='1064'> +7.4594578e+04 </wgt>
<wgt id='1065'> +7.4610587e+04 </wgt>
<wgt id='1066'> +7.4748685e+04 </wgt>
<wgt id='1067'> +7.4568115e+04 </wgt>
<wgt id='1068'> +7.4438964e+04 </wgt>
<wgt id='1069'> +7.4631508e+04 </wgt>
<wgt id='1070'> +7.4502064e+04 </wgt>
<wgt id='1071'> +7.4451086e+04 </wgt>
<wgt id='1072'> +7.4585435e+04 </wgt>
<wgt id='1073'> +7.4655215e+04 </wgt>
<wgt id='1074'> +7.4610800e+04 </wgt>
<wgt id='1075'> +7.4513310e+04 </wgt>
<wgt id='1076'> +7.4574655e+04 </wgt>
<wgt id='1077'> +7.4557645e+04 </wgt>
<wgt id='1078'> +7.4387793e+04 </wgt>
<wgt id='1079'> +7.4661560e+04 </wgt>
<wgt id='1080'> +7.4603489e+04 </wgt>
<wgt id='1081'> +7.4575426e+04 </wgt>
<wgt id='1082'> +7.4557675e+04 </wgt>
<wgt id='1083'> +7.4623855e+04 </wgt>
<wgt id='1084'> +7.4610549e+04 </wgt>
<wgt id='1085'> +7.4486869e+04 </wgt>
<wgt id='1086'> +7.4531202e+04 </wgt>
<wgt id='1087'> +7.4498014e+04 </wgt>
<wgt id='1088'> +7.4533650e+04 </wgt>
<wgt id='1089'> +7.4467331e+04 </wgt>
<wgt id='1090'> +7.4552749e+04 </wgt>
<wgt id='1091'> +7.4499949e+04 </wgt>
<wgt id='1092'> +7.4494662e+04 </wgt>
<wgt id='1093'> +7.4550134e+04 </wgt>
<wgt id='1094'> +7.4506323e+04 </wgt>
<wgt id='1095'> +7.4460992e+04 </wgt>
<wgt id='1096'> +7.4588588e+04 </wgt>
<wgt id='1097'> +7.4525979e+04 </wgt>
<wgt id='1098'> +7.4517676e+04 </wgt>
<wgt id='1099'> +7.4554612e+04 </wgt>
<wgt id='1100'> +7.4482947e+04 </wgt>
<wgt id='1101'> +7.4497521e+04 </wgt>
<wgt id='1102'> +7.4547767e+04 </wgt>
<wgt id='1103'> +7.4529512e+04 </wgt>
<wgt id='1104'> +7.4520469e+04 </wgt>
<wgt id='1105'> +7.4507415e+04 </wgt>
<wgt id='1106'> +7.4553527e+04 </wgt>
<wgt id='1107'> +7.4526866e+04 </wgt>
<wgt id='1108'> +7.4454368e+04 </wgt>
<wgt id='1109'> +7.4544254e+04 </wgt>
<wgt id='1110'> +7.4519524e+04 </wgt>
<wgt id='1111'> +7.2832599e+04 </wgt>
<wgt id='1112'> +7.6215820e+04 </wgt>
<wgt id='1113'> +7.4519524e+04 </wgt>
<wgt id='1114'> +8.1567756e+04 </wgt>
<wgt id='1115'> +7.4780433e+04 </wgt>
<wgt id='1116'> +7.0249145e+04 </wgt>
<wgt id='1117'> +7.2213099e+04 </wgt>
<wgt id='1118'> +7.3520142e+04 </wgt>
<wgt id='1119'> +7.9907702e+04 </wgt>
<wgt id='1120'> +7.5466048e+04 </wgt>
<wgt id='1121'> +7.1666312e+04 </wgt>
<wgt id='1122'> +7.1777661e+04 </wgt>
<wgt id='1123'> +7.3597352e+04 </wgt>
<wgt id='1124'> +7.4836142e+04 </wgt>
<wgt id='1125'> +7.1660227e+04 </wgt>
<wgt id='1126'> +7.3646270e+04 </wgt>
<wgt id='1127'> +7.4045217e+04 </wgt>
<wgt id='1128'> +7.5359727e+04 </wgt>
<wgt id='1129'> +7.5511223e+04 </wgt>
<wgt id='1130'> +7.6741911e+04 </wgt>
<wgt id='1131'> +7.2797362e+04 </wgt>
<wgt id='1132'> +7.4835758e+04 </wgt>
<wgt id='1133'> +7.0903062e+04 </wgt>
<wgt id='1134'> +7.2145719e+04 </wgt>
<wgt id='1135'> +7.5552216e+04 </wgt>
<wgt id='1136'> +7.7460703e+04 </wgt>
<wgt id='1137'> +7.2352069e+04 </wgt>
<wgt id='1138'> +7.1610119e+04 </wgt>
<wgt id='1139'> +7.5653692e+04 </wgt>
<wgt id='1140'> +7.7235029e+04 </wgt>
<wgt id='1141'> +7.4220045e+04 </wgt>
<wgt id='1142'> +7.5838879e+04 </wgt>
<wgt id='1143'> +7.6832266e+04 </wgt>
<wgt id='1144'> +7.6454700e+04 </wgt>
<wgt id='1145'> +7.3422247e+04 </wgt>
<wgt id='1146'> +7.6375567e+04 </wgt>
<wgt id='1147'> +7.1950441e+04 </wgt>
<wgt id='1148'> +7.6460111e+04 </wgt>
<wgt id='1149'> +7.3960693e+04 </wgt>
<wgt id='1150'> +7.3908286e+04 </wgt>
<wgt id='1151'> +7.3465758e+04 </wgt>
<wgt id='1152'> +7.4637011e+04 </wgt>
<wgt id='1153'> +7.4366416e+04 </wgt>
<wgt id='1154'> +7.4103150e+04 </wgt>
<wgt id='1155'> +7.5879229e+04 </wgt>
<wgt id='1156'> +7.6521249e+04 </wgt>
<wgt id='1157'> +7.7157889e+04 </wgt>
<wgt id='1158'> +7.6247771e+04 </wgt>
<wgt id='1159'> +7.6079604e+04 </wgt>
<wgt id='1160'> +7.4815591e+04 </wgt>
<wgt id='1161'> +7.3375281e+04 </wgt>
<wgt id='1162'> +7.7588925e+04 </wgt>
<wgt id='1163'> +7.5417585e+04 </wgt>
<wgt id='1164'> +7.4087960e+04 </wgt>
<wgt id='1165'> +7.3463413e+04 </wgt>
<wgt id='1166'> +7.4428173e+04 </wgt>
<wgt id='1167'> +7.6468456e+04 </wgt>
<wgt id='1168'> +7.3692604e+04 </wgt>
<wgt id='1169'> +7.4855829e+04 </wgt>
<wgt id='1170'> +7.6511379e+04 </wgt>
<wgt id='1171'> +7.3339849e+04 </wgt>
<wgt id='1172'> +7.4141276e+04 </wgt>
<wgt id='1173'> +7.6379854e+04 </wgt>
<wgt id='1174'> +7.5739827e+04 </wgt>
<wgt id='1175'> +7.4666954e+04 </wgt>
<wgt id='1176'> +7.4656160e+04 </wgt>
<wgt id='1177'> +7.1181497e+04 </wgt>
<wgt id='1178'> +7.5563101e+04 </wgt>
<wgt id='1179'> +7.6752523e+04 </wgt>
<wgt id='1180'> +7.6228245e+04 </wgt>
<wgt id='1181'> +7.7299146e+04 </wgt>
<wgt id='1182'> +7.5372187e+04 </wgt>
<wgt id='1183'> +7.4153856e+04 </wgt>
<wgt id='1184'> +7.3511398e+04 </wgt>
<wgt id='1185'> +7.7711181e+04 </wgt>
<wgt id='1186'> +7.0294254e+04 </wgt>
<wgt id='1187'> +7.1161711e+04 </wgt>
<wgt id='1188'> +7.3196994e+04 </wgt>
<wgt id='1189'> +7.7461203e+04 </wgt>
<wgt id='1190'> +7.0930129e+04 </wgt>
<wgt id='1191'> +7.4321775e+04 </wgt>
<wgt id='1192'> +7.4048828e+04 </wgt>
<wgt id='1193'> +7.6529333e+04 </wgt>
<wgt id='1194'> +7.3545153e+04 </wgt>
<wgt id='1195'> +7.5511223e+04 </wgt>
<wgt id='1196'> +7.5796563e+04 </wgt>
<wgt id='1197'> +7.2654302e+04 </wgt>
<wgt id='1198'> +7.3372612e+04 </wgt>
<wgt id='1199'> +7.8787336e+04 </wgt>
<wgt id='1200'> +7.1102799e+04 </wgt>
<wgt id='1201'> +7.6943605e+04 </wgt>
<wgt id='1202'> +6.8791834e+04 </wgt>
<wgt id='1203'> +7.4020983e+04 </wgt>
<wgt id='1204'> +7.3197689e+04 </wgt>
<wgt id='1205'> +7.1663570e+04 </wgt>
<wgt id='1206'> +7.3038274e+04 </wgt>
<wgt id='1207'> +7.6382228e+04 </wgt>
<wgt id='1208'> +7.2639395e+04 </wgt>
<wgt id='1209'> +7.4790054e+04 </wgt>
<wgt id='1210'> +7.6299555e+04 </wgt>
<wgt id='1211'> +7.3829957e+04 </wgt>
<wgt id='1212'> +7.2036875e+04 </wgt>
<wgt id='1213'> +7.3902425e+04 </wgt>
<wgt id='1214'> +7.4485564e+04 </wgt>
<wgt id='1215'> +6.7821640e+04 </wgt>
<wgt id='1216'> +6.8805019e+04 </wgt>
<wgt id='1217'> +6.9990016e+04 </wgt>
<wgt id='1218'> +7.1658868e+04 </wgt>
<wgt id='1219'> +7.3987057e+04 </wgt>
<wgt id='1220'> +7.5282355e+04 </wgt>
<wgt id='1221'> +7.7651347e+04 </wgt>
<wgt id='1222'> +7.9095771e+04 </wgt>
<wgt id='1223'> +7.3192818e+04 </wgt>
<wgt id='1224'> +7.3083173e+04 </wgt>
<wgt id='1225'> +7.3397656e+04 </wgt>
<wgt id='1226'> +7.3140383e+04 </wgt>
<wgt id='1227'> +7.3633005e+04 </wgt>
<wgt id='1228'> +7.3295998e+04 </wgt>
<wgt id='1229'> +7.2829046e+04 </wgt>
<wgt id='1230'> +7.3415340e+04 </wgt>
<wgt id='1231'> +7.3162979e+04 </wgt>
<wgt id='1232'> +7.3501569e+04 </wgt>
<wgt id='1233'> +7.2389129e+04 </wgt>
<wgt id='1234'> +7.3029854e+04 </wgt>
<wgt id='1235'> +7.3438103e+04 </wgt>
<wgt id='1236'> +7.3426334e+04 </wgt>
<wgt id='1237'> +7.3605715e+04 </wgt>
<wgt id='1238'> +7.2505807e+04 </wgt>
<wgt id='1239'> +7.3859087e+04 </wgt>
<wgt id='1240'> +7.2935722e+04 </wgt>
<wgt id='1241'> +7.3559511e+04 </wgt>
<wgt id='1242'> +7.3079897e+04 </wgt>
<wgt id='1243'> +7.2557665e+04 </wgt>
<wgt id='1244'> +7.3967210e+04 </wgt>
<wgt id='1245'> +7.3280058e+04 </wgt>
<wgt id='1246'> +7.3114447e+04 </wgt>
<wgt id='1247'> +7.3721097e+04 </wgt>
<wgt id='1248'> +7.2656386e+04 </wgt>
<wgt id='1249'> +7.3161115e+04 </wgt>
<wgt id='1250'> +7.3153582e+04 </wgt>
<wgt id='1251'> +7.3132341e+04 </wgt>
<wgt id='1252'> +7.3843864e+04 </wgt>
<wgt id='1253'> +7.3090803e+04 </wgt>
<wgt id='1254'> +7.2936914e+04 </wgt>
<wgt id='1255'> +7.3165099e+04 </wgt>
<wgt id='1256'> +7.3327813e+04 </wgt>
<wgt id='1257'> +7.3267970e+04 </wgt>
<wgt id='1258'> +7.3280380e+04 </wgt>
<wgt id='1259'> +7.3224297e+04 </wgt>
<wgt id='1260'> +7.2998478e+04 </wgt>
<wgt id='1261'> +7.3213839e+04 </wgt>
<wgt id='1262'> +7.3138633e+04 </wgt>
<wgt id='1263'> +7.3204103e+04 </wgt>
<wgt id='1264'> +7.3105738e+04 </wgt>
<wgt id='1265'> +7.3134467e+04 </wgt>
<wgt id='1266'> +7.3021190e+04 </wgt>
<wgt id='1267'> +7.3189062e+04 </wgt>
<wgt id='1268'> +7.3251477e+04 </wgt>
<wgt id='1269'> +7.3349876e+04 </wgt>
<wgt id='1270'> +7.3039263e+04 </wgt>
<wgt id='1271'> +7.3061353e+04 </wgt>
<wgt id='1272'> +7.3371232e+04 </wgt>
<wgt id='1273'> +7.3219355e+04 </wgt>
<wgt id='1274'> +7.3152248e+04 </wgt>
<wgt id='1275'> +7.3057519e+04 </wgt>
<wgt id='1276'> +7.3094307e+04 </wgt>
<wgt id='1277'> +7.3000893e+04 </wgt>
<wgt id='1278'> +7.3235935e+04 </wgt>
<wgt id='1279'> +7.3232541e+04 </wgt>
<wgt id='1280'> +7.3130596e+04 </wgt>
<wgt id='1281'> +7.3079969e+04 </wgt>
<wgt id='1282'> +7.3100568e+04 </wgt>
<wgt id='1283'> +7.3218765e+04 </wgt>
<wgt id='1284'> +7.3326980e+04 </wgt>
<wgt id='1285'> +7.3314129e+04 </wgt>
<wgt id='1286'> +7.3256196e+04 </wgt>
<wgt id='1287'> +7.3234953e+04 </wgt>
<wgt id='1288'> +7.3226535e+04 </wgt>
<wgt id='1289'> +7.3226707e+04 </wgt>
<wgt id='1290'> +7.3187991e+04 </wgt>
<wgt id='1291'> +7.3198485e+04 </wgt>
<wgt id='1292'> +7.3102794e+04 </wgt>
<wgt id='1293'> +7.3299871e+04 </wgt>
<wgt id='1294'> +7.3224480e+04 </wgt>
<wgt id='1295'> +7.3169480e+04 </wgt>
<wgt id='1296'> +7.3280272e+04 </wgt>
<wgt id='1297'> +7.3196269e+04 </wgt>
<wgt id='1298'> +7.3273812e+04 </wgt>
<wgt id='1299'> +7.3134689e+04 </wgt>
<wgt id='1300'> +7.3281437e+04 </wgt>
<wgt id='1301'> +7.3184139e+04 </wgt>
<wgt id='1302'> +7.3189142e+04 </wgt>
<wgt id='1303'> +7.3194408e+04 </wgt>
<wgt id='1304'> +7.3165301e+04 </wgt>
<wgt id='1305'> +7.3176305e+04 </wgt>
<wgt id='1306'> +7.3174875e+04 </wgt>
<wgt id='1307'> +7.3285215e+04 </wgt>
<wgt id='1308'> +7.3260920e+04 </wgt>
<wgt id='1309'> +7.3159095e+04 </wgt>
<wgt id='1310'> +7.3205298e+04 </wgt>
<wgt id='1311'> +7.3184296e+04 </wgt>
<wgt id='1312'> +7.3215650e+04 </wgt>
<wgt id='1313'> +7.3139265e+04 </wgt>
<wgt id='1314'> +7.3189496e+04 </wgt>
<wgt id='1315'> +7.3249429e+04 </wgt>
<wgt id='1316'> +7.3204696e+04 </wgt>
<wgt id='1317'> +7.3227350e+04 </wgt>
<wgt id='1318'> +7.3179714e+04 </wgt>
<wgt id='1319'> +7.3221350e+04 </wgt>
<wgt id='1320'> +7.3181648e+04 </wgt>
<wgt id='1321'> +7.3169562e+04 </wgt>
<wgt id='1322'> +7.3182908e+04 </wgt>
<wgt id='1323'> +7.3221360e+04 </wgt>
<wgt id='1324'> +7.1716765e+04 </wgt>
<wgt id='1325'> +7.4861699e+04 </wgt>
<wgt id='1326'> +7.0912739e+04 </wgt>
<wgt id='1327'> +6.7159680e+04 </wgt>
<wgt id='1328'> +7.4718967e+04 </wgt>
<wgt id='1329'> +7.4363831e+04 </wgt>
<wgt id='1330'> +7.5812548e+04 </wgt>
<wgt id='1331'> +7.4752770e+04 </wgt>
<wgt id='1332'> +7.5826286e+04 </wgt>
<wgt id='1333'> +7.5612902e+04 </wgt>
<wgt id='1334'> +7.4640216e+04 </wgt>
<wgt id='1335'> +7.2654318e+04 </wgt>
<wgt id='1336'> +7.5489246e+04 </wgt>
<wgt id='1337'> +7.4819605e+04 </wgt>
<wgt id='1338'> +7.4581865e+04 </wgt>
<wgt id='1339'> +7.4047905e+04 </wgt>
<wgt id='1340'> +7.3301603e+04 </wgt>
<wgt id='1341'> +7.3061585e+04 </wgt>
<wgt id='1342'> +7.5977600e+04 </wgt>
<wgt id='1343'> +7.5239348e+04 </wgt>
<wgt id='1344'> +7.5503555e+04 </wgt>
<wgt id='1345'> +7.4987042e+04 </wgt>
<wgt id='1346'> +7.3480644e+04 </wgt>
<wgt id='1347'> +7.5922653e+04 </wgt>
<wgt id='1348'> +7.2925410e+04 </wgt>
<wgt id='1349'> +7.4554524e+04 </wgt>
<wgt id='1350'> +7.5179810e+04 </wgt>
<wgt id='1351'> +7.4692710e+04 </wgt>
<wgt id='1352'> +7.5213770e+04 </wgt>
<wgt id='1353'> +7.7699717e+04 </wgt>
<wgt id='1354'> +7.5178809e+04 </wgt>
<wgt id='1355'> +7.4453547e+04 </wgt>
<wgt id='1356'> +7.4452103e+04 </wgt>
<wgt id='1357'> +7.4147450e+04 </wgt>
<wgt id='1358'> +7.5563228e+04 </wgt>
<wgt id='1359'> +7.3849185e+04 </wgt>
<wgt id='1360'> +7.6581749e+04 </wgt>
<wgt id='1361'> +7.7747161e+04 </wgt>
<wgt id='1362'> +7.5826265e+04 </wgt>
<wgt id='1363'> +7.4404225e+04 </wgt>
<wgt id='1364'> +7.4638981e+04 </wgt>
<wgt id='1365'> +7.4959947e+04 </wgt>
<wgt id='1366'> +7.4829103e+04 </wgt>
<wgt id='1367'> +7.6155425e+04 </wgt>
<wgt id='1368'> +7.5019381e+04 </wgt>
<wgt id='1369'> +7.4679699e+04 </wgt>
<wgt id='1370'> +7.2334864e+04 </wgt>
<wgt id='1371'> +7.3448417e+04 </wgt>
<wgt id='1372'> +7.6578427e+04 </wgt>
<wgt id='1373'> +7.3473663e+04 </wgt>
<wgt id='1374'> +7.4906200e+04 </wgt>
<wgt id='1375'> +7.5144870e+04 </wgt>
<wgt id='1376'> +7.4562599e+04 </wgt>
<wgt id='1377'> +7.4849152e+04 </wgt>
<wgt id='1378'> +7.4141852e+04 </wgt>
<wgt id='1379'> +7.4896133e+04 </wgt>
<wgt id='1380'> +7.5956659e+04 </wgt>
<wgt id='1381'> +7.4182097e+04 </wgt>
<wgt id='1382'> +7.3207765e+04 </wgt>
<wgt id='1383'> +7.4242345e+04 </wgt>
<wgt id='1384'> +7.5245849e+04 </wgt>
<wgt id='1385'> +7.1787588e+04 </wgt>
<wgt id='1386'> +7.5149229e+04 </wgt>
<wgt id='1387'> +7.3003919e+04 </wgt>
<wgt id='1388'> +7.4313977e+04 </wgt>
<wgt id='1389'> +7.5008214e+04 </wgt>
<wgt id='1390'> +7.1802376e+04 </wgt>
<wgt id='1391'> +7.3959376e+04 </wgt>
<wgt id='1392'> +7.3340794e+04 </wgt>
<wgt id='1393'> +7.2259149e+04 </wgt>
<wgt id='1394'> +7.4959947e+04 </wgt>
<wgt id='1395'> +7.4893973e+04 </wgt>
<wgt id='1396'> +7.6594230e+04 </wgt>
<wgt id='1397'> +7.5453934e+04 </wgt>
<wgt id='1398'> +7.4982111e+04 </wgt>
<wgt id='1399'> +7.4440286e+04 </wgt>
<wgt id='1400'> +7.6548621e+04 </wgt>
<wgt id='1401'> +7.4158112e+04 </wgt>
<wgt id='1402'> +7.6005896e+04 </wgt>
<wgt id='1403'> +7.5751205e+04 </wgt>
<wgt id='1404'> +7.5187139e+04 </wgt>
<wgt id='1405'> +7.3515613e+04 </wgt>
<wgt id='1406'> +7.5299013e+04 </wgt>
<wgt id='1407'> +7.5779238e+04 </wgt>
<wgt id='1408'> +7.5252927e+04 </wgt>
<wgt id='1409'> +7.4235892e+04 </wgt>
<wgt id='1410'> +7.5982225e+04 </wgt>
<wgt id='1411'> +7.4935083e+04 </wgt>
<wgt id='1412'> +7.5644108e+04 </wgt>
<wgt id='1413'> +7.4860514e+04 </wgt>
<wgt id='1414'> +7.1924517e+04 </wgt>
<wgt id='1415'> +7.3516658e+04 </wgt>
<wgt id='1416'> +7.3506395e+04 </wgt>
<wgt id='1417'> +7.4467576e+04 </wgt>
<wgt id='1418'> +7.6464339e+04 </wgt>
<wgt id='1419'> +7.3705667e+04 </wgt>
<wgt id='1420'> +7.1988316e+04 </wgt>
<wgt id='1421'> +7.5767087e+04 </wgt>
<wgt id='1422'> +7.4206046e+04 </wgt>
<wgt id='1423'> +7.4164134e+04 </wgt>
<wgt id='1424'> +7.3585324e+04 </wgt>
<wgt id='1425'> +7.5218206e+04 </wgt>
<wgt id='1426'> +7.5371440e+04 </wgt>
<wgt id='1427'> +7.5124387e+04 </wgt>
<wgt id='1428'> +7.6419117e+04 </wgt>
<wgt id='1429'> +7.4295266e+04 </wgt>
<wgt id='1430'> +7.4893303e+04 </wgt>
<wgt id='1431'> +7.4672153e+04 </wgt>
<wgt id='1432'> +7.4875781e+04 </wgt>
<wgt id='1433'> +7.4472717e+04 </wgt>
<wgt id='1434'> +7.4613836e+04 </wgt>
<wgt id='1435'> +7.4555650e+04 </wgt>
<wgt id='1436'> +7.3975713e+04 </wgt>
<wgt id='1437'> +7.4843720e+04 </wgt>
<wgt id='1438'> +7.4620020e+04 </wgt>
<wgt id='1439'> +7.4152079e+04 </wgt>
<wgt id='1440'> +7.4517701e+04 </wgt>
<wgt id='1441'> +7.4405643e+04 </wgt>
<wgt id='1442'> +7.4442711e+04 </wgt>
<wgt id='1443'> +7.4555717e+04 </wgt>
<wgt id='1444'> +7.4587500e+04 </wgt>
<wgt id='1445'> +7.4572856e+04 </wgt>
<wgt id='1446'> +7.4403947e+04 </wgt>
<wgt id='1447'> +7.4568623e+04 </wgt>
<wgt id='1448'> +7.4768390e+04 </wgt>
<wgt id='1449'> +7.4761902e+04 </wgt>
<wgt id='1450'> +7.4613711e+04 </wgt>
<wgt id='1451'> +7.4682329e+04 </wgt>
<wgt id='1452'> +7.4448186e+04 </wgt>
<wgt id='1453'> +7.4604714e+04 </wgt>
<wgt id='1454'> +7.4842198e+04 </wgt>
<wgt id='1455'> +7.4787667e+04 </wgt>
<wgt id='1456'> +7.4729992e+04 </wgt>
<wgt id='1457'> +7.4589292e+04 </wgt>
<wgt id='1458'> +7.4645109e+04 </wgt>
<wgt id='1459'> +7.4676517e+04 </wgt>
<wgt id='1460'> +7.4674791e+04 </wgt>
<wgt id='1461'> +7.4651937e+04 </wgt>
<wgt id='1462'> +7.4692736e+04 </wgt>
<wgt id='1463'> +7.4623918e+04 </wgt>
<wgt id='1464'> +7.4675163e+04 </wgt>
<wgt id='1465'> +7.4586435e+04 </wgt>
<wgt id='1466'> +7.4642041e+04 </wgt>
<wgt id='1467'> +7.4667329e+04 </wgt>
<wgt id='1468'> +7.4756805e+04 </wgt>
<wgt id='1469'> +7.4678019e+04 </wgt>
<wgt id='1470'> +7.4638988e+04 </wgt>
<wgt id='1471'> +7.4693061e+04 </wgt>
<wgt id='1472'> +7.4705483e+04 </wgt>
<wgt id='1473'> +7.4616596e+04 </wgt>
<wgt id='1474'> +7.4677109e+04 </wgt>
<wgt id='1475'> +7.4683320e+04 </wgt>
<wgt id='1476'> +7.4606162e+04 </wgt>
<wgt id='1477'> +7.4677242e+04 </wgt>
<wgt id='1478'> +7.4654056e+04 </wgt>
<wgt id='1479'> +7.4660181e+04 </wgt>
<wgt id='1480'> +7.4678371e+04 </wgt>
<wgt id='1481'> +7.4693728e+04 </wgt>
<wgt id='1482'> +7.4295266e+04 </wgt>
<wgt id='1483'> +7.4893303e+04 </wgt>
<wgt id='1484'> +7.4107153e+04 </wgt>
<wgt id='1485'> +7.5038585e+04 </wgt>
<wgt id='1486'> +7.4609939e+04 </wgt>
<wgt id='1487'> +7.3765073e+04 </wgt>
<wgt id='1488'> +7.3934273e+04 </wgt>
<wgt id='1489'> +7.3851871e+04 </wgt>
<wgt id='1490'> +7.3833569e+04 </wgt>
<wgt id='1491'> +7.2928406e+04 </wgt>
<wgt id='1492'> +7.3099684e+04 </wgt>
<wgt id='1493'> +7.4915025e+04 </wgt>
<wgt id='1494'> +7.3646685e+04 </wgt>
<wgt id='1495'> +7.2652657e+04 </wgt>
<wgt id='1496'> +7.3125874e+04 </wgt>
<wgt id='1497'> +7.2363981e+04 </wgt>
<wgt id='1498'> +7.5787386e+04 </wgt>
<wgt id='1499'> +7.3798586e+04 </wgt>
<wgt id='1500'> +7.2940627e+04 </wgt>
<wgt id='1501'> +7.3169297e+04 </wgt>
<wgt id='1502'> +7.4818995e+04 </wgt>
<wgt id='1503'> +7.2984568e+04 </wgt>
<wgt id='1504'> +7.3736542e+04 </wgt>
<wgt id='1505'> +7.4877241e+04 </wgt>
<wgt id='1506'> +7.3888280e+04 </wgt>
<wgt id='1507'> +7.4272098e+04 </wgt>
<wgt id='1508'> +7.1567877e+04 </wgt>
<wgt id='1509'> +7.5354044e+04 </wgt>
<wgt id='1510'> +7.4682609e+04 </wgt>
<wgt id='1511'> +7.4843113e+04 </wgt>
<wgt id='1512'> +7.4318389e+04 </wgt>
<wgt id='1513'> +7.2405678e+04 </wgt>
<wgt id='1514'> +7.3807478e+04 </wgt>
<wgt id='1515'> +7.3439897e+04 </wgt>
<wgt id='1516'> +7.3223077e+04 </wgt>
<wgt id='1517'> +7.4605656e+04 </wgt>
<wgt id='1518'> +7.3786967e+04 </wgt>
<wgt id='1519'> +7.3631926e+04 </wgt>
<wgt id='1520'> +7.5469033e+04 </wgt>
<wgt id='1521'> +7.3894406e+04 </wgt>
<wgt id='1522'> +7.3803989e+04 </wgt>
<wgt id='1523'> +7.3385803e+04 </wgt>
<wgt id='1524'> +7.4770990e+04 </wgt>
<wgt id='1525'> +7.4924127e+04 </wgt>
<wgt id='1526'> +7.3783888e+04 </wgt>
<wgt id='1527'> +7.3953034e+04 </wgt>
<wgt id='1528'> +7.4460088e+04 </wgt>
<wgt id='1529'> +7.3954120e+04 </wgt>
<wgt id='1530'> +7.3142545e+04 </wgt>
<wgt id='1531'> +7.4694847e+04 </wgt>
<wgt id='1532'> +7.3780567e+04 </wgt>
<wgt id='1533'> +7.5784144e+04 </wgt>
<wgt id='1534'> +7.3855072e+04 </wgt>
<wgt id='1535'> +7.3513819e+04 </wgt>
<wgt id='1536'> +7.4378192e+04 </wgt>
<wgt id='1537'> +7.5191462e+04 </wgt>
<wgt id='1538'> +7.4022542e+04 </wgt>
<wgt id='1539'> +7.4696568e+04 </wgt>
<wgt id='1540'> +7.3856450e+04 </wgt>
<wgt id='1541'> +7.5261574e+04 </wgt>
<wgt id='1542'> +7.3431049e+04 </wgt>
<wgt id='1543'> +7.4890484e+04 </wgt>
<wgt id='1544'> +7.4701210e+04 </wgt>
<wgt id='1545'> +7.5219002e+04 </wgt>
<wgt id='1546'> +7.4124306e+04 </wgt>
<wgt id='1547'> +7.4931662e+04 </wgt>
<wgt id='1548'> +7.3708694e+04 </wgt>
<wgt id='1549'> +7.4379806e+04 </wgt>
<wgt id='1550'> +7.4485285e+04 </wgt>
<wgt id='1551'> +7.4841493e+04 </wgt>
<wgt id='1552'> +7.5042755e+04 </wgt>
<wgt id='1553'> +7.4851012e+04 </wgt>
<wgt id='1554'> +7.4407862e+04 </wgt>
<wgt id='1555'> +7.2825428e+04 </wgt>
<wgt id='1556'> +7.2924329e+04 </wgt>
<wgt id='1557'> +7.3545581e+04 </wgt>
<wgt id='1558'> +7.4539882e+04 </wgt>
<wgt id='1559'> +7.5575481e+04 </wgt>
<wgt id='1560'> +7.5379784e+04 </wgt>
<wgt id='1561'> +7.5709368e+04 </wgt>
<wgt id='1562'> +7.4295310e+04 </wgt>
<wgt id='1563'> +7.4734205e+04 </wgt>
<wgt id='1564'> +7.4851356e+04 </wgt>
<wgt id='1565'> +7.5280667e+04 </wgt>
<wgt id='1566'> +7.2178050e+04 </wgt>
<wgt id='1567'> +7.3878990e+04 </wgt>
<wgt id='1568'> +7.3462027e+04 </wgt>
<wgt id='1569'> +7.4348868e+04 </wgt>
<wgt id='1570'> +7.4167482e+04 </wgt>
<wgt id='1571'> +7.4747715e+04 </wgt>
<wgt id='1572'> +7.4144325e+04 </wgt>
<wgt id='1573'> +7.4089944e+04 </wgt>
<wgt id='1574'> +7.1847496e+04 </wgt>
<wgt id='1575'> +7.4399332e+04 </wgt>
<wgt id='1576'> +7.5137638e+04 </wgt>
<wgt id='1577'> +7.2579995e+04 </wgt>
<wgt id='1578'> +7.3521825e+04 </wgt>
<wgt id='1579'> +7.2744842e+04 </wgt>
<wgt id='1580'> +7.4906685e+04 </wgt>
<wgt id='1581'> +7.5705731e+04 </wgt>
<wgt id='1582'> +7.5548117e+04 </wgt>
<wgt id='1583'> +7.4676553e+04 </wgt>
<wgt id='1584'> +7.1175085e+04 </wgt>
<wgt id='1585'> +7.3049298e+04 </wgt>
<wgt id='1586'> +6.9258717e+04 </wgt>
<wgt id='1587'> +7.4001701e+04 </wgt>
<wgt id='1588'> +7.4295266e+04 </wgt>
<wgt id='1589'> +7.4379499e+04 </wgt>
<wgt id='1590'> +7.4473735e+04 </wgt>
<wgt id='1591'> +7.4893303e+04 </wgt>
<wgt id='1592'> +7.4935833e+04 </wgt>
<wgt id='1593'> +7.2677888e+04 </wgt>
<wgt id='1594'> +7.1784659e+04 </wgt>
<wgt id='1595'> +7.1636923e+04 </wgt>
<wgt id='1596'> +7.2771133e+04 </wgt>
<wgt id='1597'> +7.2592616e+04 </wgt>
<wgt id='1598'> +7.1375580e+04 </wgt>
<wgt id='1599'> +7.3300401e+04 </wgt>
<wgt id='1600'> +7.0119856e+04 </wgt>
<wgt id='1601'> +7.4860616e+04 </wgt>
<wgt id='1602'> +6.9972397e+04 </wgt>
<wgt id='1603'> +7.4994579e+04 </wgt>
<wgt id='1604'> +7.3101673e+04 </wgt>
<wgt id='1605'> +7.2834136e+04 </wgt>
<wgt id='1606'> +7.1827250e+04 </wgt>
<wgt id='1607'> +7.2830852e+04 </wgt>
<wgt id='1608'> +7.2440680e+04 </wgt>
<wgt id='1609'> +7.1781264e+04 </wgt>
<wgt id='1610'> +7.2575267e+04 </wgt>
<wgt id='1611'> +7.2411520e+04 </wgt>
<wgt id='1612'> +7.3479514e+04 </wgt>
<wgt id='1613'> +7.0359297e+04 </wgt>
<wgt id='1614'> +7.3100788e+04 </wgt>
<wgt id='1615'> +7.1961991e+04 </wgt>
<wgt id='1616'> +7.2442622e+04 </wgt>
<wgt id='1617'> +7.2008369e+04 </wgt>
<wgt id='1618'> +7.2950480e+04 </wgt>
<wgt id='1619'> +7.2160339e+04 </wgt>
<wgt id='1620'> +7.1335226e+04 </wgt>
<wgt id='1621'> +7.3305053e+04 </wgt>
<wgt id='1622'> +7.2556946e+04 </wgt>
<wgt id='1623'> +7.1697939e+04 </wgt>
<wgt id='1624'> +7.2398810e+04 </wgt>
<wgt id='1625'> +7.2101614e+04 </wgt>
<wgt id='1626'> +7.2017099e+04 </wgt>
<wgt id='1627'> +7.2403258e+04 </wgt>
<wgt id='1628'> +7.3045845e+04 </wgt>
<wgt id='1629'> +7.2269391e+04 </wgt>
<wgt id='1630'> +7.3367315e+04 </wgt>
<wgt id='1631'> +7.1239163e+04 </wgt>
<wgt id='1632'> +7.2730711e+04 </wgt>
<wgt id='1633'> +7.1943659e+04 </wgt>
<wgt id='1634'> +7.3602519e+04 </wgt>
<wgt id='1635'> +7.1418362e+04 </wgt>
<wgt id='1636'> +7.1580300e+04 </wgt>
<wgt id='1637'> +7.3478087e+04 </wgt>
<wgt id='1638'> +7.1906640e+04 </wgt>
<wgt id='1639'> +7.3009417e+04 </wgt>
<wgt id='1640'> +7.3586000e+04 </wgt>
<wgt id='1641'> +7.1268889e+04 </wgt>
<wgt id='1642'> +7.1599561e+04 </wgt>
<wgt id='1643'> +7.3277516e+04 </wgt>
<wgt id='1644'> +7.3687645e+04 </wgt>
<wgt id='1645'> +7.0518951e+04 </wgt>
<wgt id='1646'> +7.3040947e+04 </wgt>
<wgt id='1647'> +7.2346296e+04 </wgt>
<wgt id='1648'> +7.3041246e+04 </wgt>
<wgt id='1649'> +7.2065763e+04 </wgt>
<wgt id='1650'> +7.2478327e+04 </wgt>
<wgt id='1651'> +7.2904281e+04 </wgt>
<wgt id='1652'> +7.2342066e+04 </wgt>
<wgt id='1653'> +7.2494644e+04 </wgt>
<wgt id='1654'> +7.2894332e+04 </wgt>
<wgt id='1655'> +7.3151599e+04 </wgt>
<wgt id='1656'> +7.3077286e+04 </wgt>
<wgt id='1657'> +7.2184648e+04 </wgt>
<wgt id='1658'> +7.2345415e+04 </wgt>
<wgt id='1659'> +7.3819966e+04 </wgt>
<wgt id='1660'> +7.2409496e+04 </wgt>
<wgt id='1661'> +7.4378013e+04 </wgt>
<wgt id='1662'> +7.1415621e+04 </wgt>
<wgt id='1663'> +7.1865691e+04 </wgt>
<wgt id='1664'> +7.2485346e+04 </wgt>
<wgt id='1665'> +7.2387488e+04 </wgt>
<wgt id='1666'> +7.2725611e+04 </wgt>
<wgt id='1667'> +7.2878551e+04 </wgt>
<wgt id='1668'> +7.3023629e+04 </wgt>
<wgt id='1669'> +7.4123523e+04 </wgt>
<wgt id='1670'> +7.1092645e+04 </wgt>
<wgt id='1671'> +7.3391944e+04 </wgt>
<wgt id='1672'> +7.2633941e+04 </wgt>
<wgt id='1673'> +7.2870375e+04 </wgt>
<wgt id='1674'> +7.3137951e+04 </wgt>
<wgt id='1675'> +7.2860758e+04 </wgt>
<wgt id='1676'> +7.3437487e+04 </wgt>
<wgt id='1677'> +7.2566269e+04 </wgt>
<wgt id='1678'> +7.3498573e+04 </wgt>
<wgt id='1679'> +7.2323827e+04 </wgt>
<wgt id='1680'> +7.4344224e+04 </wgt>
<wgt id='1681'> +7.3519796e+04 </wgt>
<wgt id='1682'> +7.1909515e+04 </wgt>
<wgt id='1683'> +7.3170655e+04 </wgt>
<wgt id='1684'> +7.2843081e+04 </wgt>
<wgt id='1685'> +7.2912462e+04 </wgt>
<wgt id='1686'> +7.2667845e+04 </wgt>
<wgt id='1687'> +7.4393795e+04 </wgt>
<wgt id='1688'> +7.0918539e+04 </wgt>
<wgt id='1689'> +7.4018309e+04 </wgt>
<wgt id='1690'> +7.2160225e+04 </wgt>
<wgt id='1691'> +7.2641186e+04 </wgt>
<wgt id='1692'> +7.2527909e+04 </wgt>
<wgt id='1693'> +7.5821848e+04 </wgt>
<wgt id='1694'> +7.0933553e+04 </wgt>
<wgt id='1695'> +7.3014559e+04 </wgt>
<wgt id='1696'> +7.2562368e+04 </wgt>
<wgt id='1697'> +7.3495228e+04 </wgt>
<wgt id='1698'> +7.2498698e+04 </wgt>
<wgt id='1699'> +7.2090594e+04 </wgt>
<wgt id='1700'> +7.4046834e+04 </wgt>
<wgt id='1701'> +7.1619403e+04 </wgt>
<wgt id='1702'> +7.4657877e+04 </wgt>
<wgt id='1703'> +7.3820949e+04 </wgt>
<wgt id='1704'> +7.2617216e+04 </wgt>
<wgt id='1705'> +7.2309083e+04 </wgt>
<wgt id='1706'> +7.3312239e+04 </wgt>
<wgt id='1707'> +7.1770046e+04 </wgt>
<wgt id='1708'> +7.3983490e+04 </wgt>
<wgt id='1709'> +7.2950053e+04 </wgt>
<wgt id='1710'> +7.3289135e+04 </wgt>
<wgt id='1711'> +7.2526029e+04 </wgt>
<wgt id='1712'> +7.2521950e+04 </wgt>
<wgt id='1713'> +7.2335636e+04 </wgt>
<wgt id='1714'> +7.3314595e+04 </wgt>
<wgt id='1715'> +7.0518906e+04 </wgt>
<wgt id='1716'> +7.3684981e+04 </wgt>
<wgt id='1717'> +6.8538487e+04 </wgt>
<wgt id='1718'> +6.8573791e+04 </wgt>
<wgt id='1719'> +6.8493007e+04 </wgt>
<wgt id='1720'> +6.7872306e+04 </wgt>
<wgt id='1721'> +6.9149873e+04 </wgt>
<wgt id='1722'> +6.8186531e+04 </wgt>
<wgt id='1723'> +6.9117021e+04 </wgt>
<wgt id='1724'> +6.8898937e+04 </wgt>
<wgt id='1725'> +6.8245948e+04 </wgt>
<wgt id='1726'> +6.8525065e+04 </wgt>
<wgt id='1727'> +6.8552302e+04 </wgt>
<wgt id='1728'> +6.8105824e+04 </wgt>
<wgt id='1729'> +6.8958246e+04 </wgt>
<wgt id='1730'> +6.8648655e+04 </wgt>
<wgt id='1731'> +6.8460288e+04 </wgt>
<wgt id='1732'> +6.8899701e+04 </wgt>
<wgt id='1733'> +6.8899701e+04 </wgt>
<wgt id='1734'> +6.8534875e+04 </wgt>
<wgt id='1735'> +6.8538771e+04 </wgt>
<wgt id='1736'> +6.8241755e+04 </wgt>
<wgt id='1737'> +6.8955606e+04 </wgt>
<wgt id='1738'> +6.8492244e+04 </wgt>
<wgt id='1739'> +6.8581907e+04 </wgt>
<wgt id='1740'> +6.8515187e+04 </wgt>
<wgt id='1741'> +6.8595475e+04 </wgt>
<wgt id='1742'> +6.8703661e+04 </wgt>
<wgt id='1743'> +6.8366765e+04 </wgt>
<wgt id='1744'> +6.8594502e+04 </wgt>
<wgt id='1745'> +6.8385114e+04 </wgt>
<wgt id='1746'> +6.8269018e+04 </wgt>
<wgt id='1747'> +6.8681152e+04 </wgt>
<wgt id='1748'> +6.8746365e+04 </wgt>
<wgt id='1749'> +6.7859501e+04 </wgt>
<wgt id='1750'> +6.8730433e+04 </wgt>
<wgt id='1751'> +6.8333065e+04 </wgt>
<wgt id='1752'> +6.8545502e+04 </wgt>
<wgt id='1753'> +6.8536478e+04 </wgt>
<wgt id='1754'> +6.8720921e+04 </wgt>
<wgt id='1755'> +6.8435818e+04 </wgt>
<wgt id='1756'> +6.8316798e+04 </wgt>
<wgt id='1757'> +6.9114370e+04 </wgt>
<wgt id='1758'> +6.8724360e+04 </wgt>
<wgt id='1759'> +6.8357324e+04 </wgt>
<wgt id='1760'> +6.8996497e+04 </wgt>
<wgt id='1761'> +6.8118411e+04 </wgt>
<wgt id='1762'> +6.8409380e+04 </wgt>
<wgt id='1763'> +6.8502676e+04 </wgt>
<wgt id='1764'> +6.8436438e+04 </wgt>
<wgt id='1765'> +6.9017107e+04 </wgt>
<wgt id='1766'> +6.8503467e+04 </wgt>
<wgt id='1767'> +6.8573914e+04 </wgt>
<wgt id='1768'> +6.8452935e+04 </wgt>
<wgt id='1769'> +6.8575932e+04 </wgt>
<wgt id='1770'> +6.8187246e+04 </wgt>
<wgt id='1771'> +6.8555476e+04 </wgt>
<wgt id='1772'> +6.8675231e+04 </wgt>
<wgt id='1773'> +6.8409003e+04 </wgt>
<wgt id='1774'> +6.7852051e+04 </wgt>
<wgt id='1775'> +6.8985905e+04 </wgt>
<wgt id='1776'> +6.8351332e+04 </wgt>
<wgt id='1777'> +6.8626631e+04 </wgt>
<wgt id='1778'> +6.8006782e+04 </wgt>
<wgt id='1779'> +6.8387247e+04 </wgt>
<wgt id='1780'> +6.9557060e+04 </wgt>
<wgt id='1781'> +6.8737134e+04 </wgt>
<wgt id='1782'> +6.8538487e+04 </wgt>
<wgt id='1783'> +6.8572191e+04 </wgt>
<wgt id='1784'> +7.1148920e+04 </wgt>
<wgt id='1785'> +7.1527971e+04 </wgt>
<wgt id='1786'> +6.8921786e+04 </wgt>
<wgt id='1787'> +7.1179673e+04 </wgt>
<wgt id='1788'> +7.0917573e+04 </wgt>
<wgt id='1789'> +7.1349491e+04 </wgt>
<wgt id='1790'> +7.1468172e+04 </wgt>
<wgt id='1791'> +7.1436033e+04 </wgt>
<wgt id='1792'> +7.0353384e+04 </wgt>
<wgt id='1793'> +7.1596403e+04 </wgt>
<wgt id='1794'> +7.1176332e+04 </wgt>
<wgt id='1795'> +7.1191499e+04 </wgt>
<wgt id='1796'> +7.1280720e+04 </wgt>
<wgt id='1797'> +7.1586677e+04 </wgt>
<wgt id='1798'> +7.1470707e+04 </wgt>
<wgt id='1799'> +7.1700278e+04 </wgt>
<wgt id='1800'> +7.1475734e+04 </wgt>
<wgt id='1801'> +7.2284536e+04 </wgt>
<wgt id='1802'> +7.2026219e+04 </wgt>
<wgt id='1803'> +7.1155495e+04 </wgt>
<wgt id='1804'> +7.1282490e+04 </wgt>
<wgt id='1805'> +7.0659571e+04 </wgt>
<wgt id='1806'> +7.1216692e+04 </wgt>
<wgt id='1807'> +7.1175086e+04 </wgt>
<wgt id='1808'> +7.1225447e+04 </wgt>
<wgt id='1809'> +7.1133558e+04 </wgt>
<wgt id='1810'> +7.1191895e+04 </wgt>
<wgt id='1811'> +7.1147424e+04 </wgt>
<wgt id='1812'> +7.1035058e+04 </wgt>
<wgt id='1813'> +7.0932419e+04 </wgt>
<wgt id='1814'> +7.1469828e+04 </wgt>
<wgt id='1815'> +7.1006101e+04 </wgt>
<wgt id='1816'> +7.1218792e+04 </wgt>
<wgt id='1817'> +7.1260383e+04 </wgt>
<wgt id='1818'> +7.1179204e+04 </wgt>
<wgt id='1819'> +7.1052351e+04 </wgt>
<wgt id='1820'> +7.1176199e+04 </wgt>
<wgt id='1821'> +7.0885475e+04 </wgt>
<wgt id='1822'> +7.1136658e+04 </wgt>
<wgt id='1823'> +7.1277663e+04 </wgt>
<wgt id='1824'> +7.1262707e+04 </wgt>
<wgt id='1825'> +7.0412686e+04 </wgt>
<wgt id='1826'> +7.2343233e+04 </wgt>
<wgt id='1827'> +7.3883113e+04 </wgt>
<wgt id='1828'> +7.4085437e+04 </wgt>
<wgt id='1829'> +7.3698140e+04 </wgt>
<wgt id='1830'> +7.3739035e+04 </wgt>
<wgt id='1831'> +7.4043817e+04 </wgt>
<wgt id='1832'> +7.3960853e+04 </wgt>
<wgt id='1833'> +7.3821760e+04 </wgt>
<wgt id='1834'> +7.3549130e+04 </wgt>
<wgt id='1835'> +7.4217784e+04 </wgt>
<wgt id='1836'> +7.4277929e+04 </wgt>
<wgt id='1837'> +7.3501969e+04 </wgt>
<wgt id='1838'> +7.4220893e+04 </wgt>
<wgt id='1839'> +7.3563654e+04 </wgt>
<wgt id='1840'> +7.3670748e+04 </wgt>
<wgt id='1841'> +7.4111960e+04 </wgt>
<wgt id='1842'> +7.3790826e+04 </wgt>
<wgt id='1843'> +7.3963304e+04 </wgt>
<wgt id='1844'> +7.4006836e+04 </wgt>
<wgt id='1845'> +7.3758998e+04 </wgt>
<wgt id='1846'> +7.3995896e+04 </wgt>
<wgt id='1847'> +7.3776891e+04 </wgt>
<wgt id='1848'> +7.3548634e+04 </wgt>
<wgt id='1849'> +7.4139089e+04 </wgt>
<wgt id='1850'> +7.4186510e+04 </wgt>
<wgt id='1851'> +7.3591632e+04 </wgt>
<wgt id='1852'> +7.4385311e+04 </wgt>
<wgt id='1853'> +7.3258638e+04 </wgt>
<wgt id='1854'> +7.4424124e+04 </wgt>
<wgt id='1855'> +7.3409523e+04 </wgt>
<wgt id='1856'> +7.0907913e+04 </wgt>
<wgt id='1857'> +7.0891865e+04 </wgt>
<wgt id='1858'> +7.0829848e+04 </wgt>
<wgt id='1859'> +7.0963318e+04 </wgt>
<wgt id='1860'> +7.0910573e+04 </wgt>
<wgt id='1861'> +7.1041427e+04 </wgt>
<wgt id='1862'> +7.0532170e+04 </wgt>
<wgt id='1863'> +7.1084655e+04 </wgt>
<wgt id='1864'> +7.0695900e+04 </wgt>
<wgt id='1865'> +7.0728847e+04 </wgt>
<wgt id='1866'> +7.0878336e+04 </wgt>
<wgt id='1867'> +7.0840314e+04 </wgt>
<wgt id='1868'> +7.0941350e+04 </wgt>
<wgt id='1869'> +7.1012636e+04 </wgt>
<wgt id='1870'> +7.0806068e+04 </wgt>
<wgt id='1871'> +7.0995757e+04 </wgt>
<wgt id='1872'> +7.0767287e+04 </wgt>
<wgt id='1873'> +7.0842046e+04 </wgt>
<wgt id='1874'> +7.0828580e+04 </wgt>
<wgt id='1875'> +7.1006176e+04 </wgt>
<wgt id='1876'> +7.0804940e+04 </wgt>
<wgt id='1877'> +7.0671202e+04 </wgt>
<wgt id='1878'> +7.0858759e+04 </wgt>
<wgt id='1879'> +7.1062206e+04 </wgt>
<wgt id='1880'> +7.1078112e+04 </wgt>
<wgt id='1881'> +7.0851217e+04 </wgt>
<wgt id='1882'> +7.0838789e+04 </wgt>
<wgt id='1883'> +7.0952491e+04 </wgt>
<wgt id='1884'> +7.0577714e+04 </wgt>
<wgt id='1885'> +7.0506460e+04 </wgt>
<wgt id='1886'> +8.2326766e+04 </wgt>
<wgt id='1887'> +8.7469852e+04 </wgt>
<wgt id='1888'> +6.4382983e+04 </wgt>
<wgt id='1889'> +7.5939371e+04 </wgt>
</rwgt>
</event>
<event npLO=" -1 " npNLO=" 0 ">
 5      1 +7.4519530e+04 3.99820170e+01 7.55820760e-03 1.17746160e-01
       -4 -1    0    0    0  501 +0.0000000000e+00 +0.0000000000e+00 +3.3360560754e+02 3.3360560754e+02 0.0000000000e+00 0.0000e+00 1.0000e+00
        3 -1    0    0  501    0 +0.0000000000e+00 +0.0000000000e+00 -4.8450865460e+00 4.8450865460e+00 0.0000000000e+00 0.0000e+00 -1.0000e+00
      -24  2    1    2    0    0 +0.0000000000e+00 +0.0000000000e+00 +3.2876052099e+02 3.3845069408e+02 8.0407662340e+01 0.0000e+00 0.0000e+00
       15  1    3    3    0    0 -3.9921435136e+01 -1.8061727404e+00 +1.4670880148e+02 1.5206450409e+02 1.7770000000e+00 0.0000e+00 -1.0000e+00
      -16  1    3    3    0    0 +3.9921435136e+01 +1.8061727404e+00 +1.8205171951e+02 1.8638619000e+02 0.0000000000e+00 0.0000e+00 1.0000e+00
#aMCatNLO 1  0  0  1  1 0.11707676E+03 0.00000000E+00 -9  5  0 0.00000000E+00 0.00000000E+00 0.00000000E+00 0.00000000E+00 0.00000000E+00
<rwgt>
<wgt id='1001'> +7.4519530e+04 </wgt>
<wgt id='1002'> +7.4593209e+04 </wgt>
<wgt id='1003'> +7.4427723e+04 </wgt>
<wgt id='1004'> +8.6490608e+04 </wgt>
<wgt id='1005'> +8.6645122e+04 </wgt>
<wgt id='1006'> +8.6298083e+04 </wgt>
<wgt id='1007'> +6.1522374e+04 </wgt>
<wgt id='1008'> +6.1534916e+04 </wgt>
<wgt id='1009'> +6.1506746e+04 </wgt>
<wgt id='1010'> +7.4519530e+04 </wgt>
<wgt id='1011'> +7.5478493e+04 </wgt>
<wgt id='1012'> +7.4588832e+04 </wgt>
<wgt id='1013'> +7.4599868e+04 </wgt>
<wgt id='1014'> +7.2481885e+04 </wgt>
<wgt id='1015'> +7.6199944e+04 </wgt>
<wgt id='1016'> +7.3255409e+04 </wgt>
<wgt id='1017'> +7.3947589e+04 </wgt>
<wgt id='1018'> +7.5131010e+04 </wgt>
<wgt id='1019'> +7.3367792e+04 </wgt>
<wgt id='1020'> +7.5723937e+04 </wgt>
<wgt id='1021'> +7.5099830e+04 </wgt>
<wgt id='1022'> +7.3484702e+04 </wgt>
<wgt id='1023'> +7.3570432e+04 </wgt>
<wgt id='1024'> +7.4628231e+04 </wgt>
<wgt id='1025'> +7.2263289e+04 </wgt>
<wgt id='1026'> +7.6090797e+04 </wgt>
<wgt id='1027'> +7.4839243e+04 </wgt>
<wgt id='1028'> +7.5879255e+04 </wgt>
<wgt id='1029'> +7.3834217e+04 </wgt>
<wgt id='1030'> +7.4303313e+04 </wgt>
<wgt id='1031'> +7.4692904e+04 </wgt>
<wgt id='1032'> +7.3068279e+04 </wgt>
<wgt id='1033'> +7.4923085e+04 </wgt>
<wgt id='1034'> +7.5976974e+04 </wgt>
<wgt id='1035'> +7.4826850e+04 </wgt>
<wgt id='1036'> +7.4225380e+04 </wgt>
<wgt id='1037'> +7.3232306e+04 </wgt>
<wgt id='1038'> +7.4453929e+04 </wgt>
<wgt id='1039'> +7.2968220e+04 </wgt>
<wgt id='1040'> +7.4324549e+04 </wgt>
<wgt id='1041'> +7.3073837e+04 </wgt>
<wgt id='1042'> +7.5157336e+04 </wgt>
<wgt id='1043'> +7.3962539e+04 </wgt>
<wgt id='1044'> +7.4105400e+04 </wgt>
<wgt id='1045'> +7.4517308e+04 </wgt>
<wgt id='1046'> +7.5303876e+04 </wgt>
<wgt id='1047'> +7.5257046e+04 </wgt>
<wgt id='1048'> +7.4037408e+04 </wgt>
<wgt id='1049'> +7.4259204e+04 </wgt>
<wgt id='1050'> +7.4192196e+04 </wgt>
<wgt id='1051'> +7.4936971e+04 </wgt>
<wgt id='1052'> +7.4598177e+04 </wgt>
<wgt id='1053'> +7.4887049e+04 </wgt>
<wgt id='1054'> +7.4365677e+04 </wgt>
<wgt id='1055'> +7.4773776e+04 </wgt>
<wgt id='1056'> +7.4385655e+04 </wgt>
<wgt id='1057'> +7.4654434e+04 </wgt>
<wgt id='1058'> +7.3794538e+04 </wgt>
<wgt id='1059'> +7.4893351e+04 </wgt>
<wgt id='1060'> +7.4600270e+04 </wgt>
<wgt id='1061'> +7.4455894e+04 </wgt>
<wgt id='1062'> +7.4034445e+04 </wgt>
<wgt id='1063'> +7.4630849e+04 </wgt>
<wgt id='1064'> +7.4507140e+04 </wgt>
<wgt id='1065'> +7.4618640e+04 </wgt>
<wgt id='1066'> +7.3575688e+04 </wgt>
<wgt id='1067'> +7.4201530e+04 </wgt>
<wgt id='1068'> +7.4661140e+04 </wgt>
<wgt id='1069'> +7.4357579e+04 </wgt>
<wgt id='1070'> +7.4024633e+04 </wgt>
<wgt id='1071'> +7.4210216e+04 </wgt>
<wgt id='1072'> +7.4617841e+04 </wgt>
<wgt id='1073'> +7.5004857e+04 </wgt>
<wgt id='1074'> +7.4475443e+04 </wgt>
<wgt id='1075'> +7.4650924e+04 </wgt>
<wgt id='1076'> +7.3851965e+04 </wgt>
<wgt id='1077'> +7.4410502e+04 </wgt>
<wgt id='1078'> +7.3942526e+04 </wgt>
<wgt id='1079'> +7.4654064e+04 </wgt>
<wgt id='1080'> +7.3806702e+04 </wgt>
<wgt id='1081'> +7.4529835e+04 </wgt>
<wgt id='1082'> +7.4723254e+04 </wgt>
<wgt id='1083'> +7.4510746e+04 </wgt>
<wgt id='1084'> +7.4507865e+04 </wgt>
<wgt id='1085'> +7.4488365e+04 </wgt>
<wgt id='1086'> +7.4471826e+04 </wgt>
<wgt id='1087'> +7.4543857e+04 </wgt>
<wgt id='1088'> +7.4161925e+04 </wgt>
<wgt id='1089'> +7.4537447e+04 </wgt>
<wgt id='1090'> +7.4243336e+04 </wgt>
<wgt id='1091'> +7.4300613e+04 </wgt>
<wgt id='1092'> +7.4361555e+04 </wgt>
<wgt id='1093'> +7.4208439e+04 </wgt>
<wgt id='1094'> +7.4336257e+04 </wgt>
<wgt id='1095'> +7.4687685e+04 </wgt>
<wgt id='1096'> +7.4464110e+04 </wgt>
<wgt id='1097'> +7.4255897e+04 </wgt>
<wgt id='1098'> +7.4797747e+04 </wgt>
<wgt id='1099'> +7.4493404e+04 </wgt>
<wgt id='1100'> +7.5043542e+04 </wgt>
<wgt id='1101'> +7.4775290e+04 </wgt>
<wgt id='1102'> +7.4591210e+04 </wgt>
<wgt id='1103'> +7.4357825e+04 </wgt>
<wgt id='1104'> +7.3928020e+04 </wgt>
<wgt id='1105'> +7.4208574e+04 </wgt>
<wgt id='1106'> +7.4595205e+04 </wgt>
<wgt id='1107'> +7.4760514e+04 </wgt>
<wgt id='1108'> +7.4613134e+04 </wgt>
<wgt id='1109'> +7.4344511e+04 </wgt>
<wgt id='1110'> +7.4519529e+04 </wgt>
<wgt id='1111'> +6.9016433e+04 </wgt>
<wgt id='1112'> +7.7442408e+04 </wgt>
<wgt id='1113'> +7.4519529e+04 </wgt>
<wgt id='1114'> +5.8135447e+04 </wgt>
<wgt id='1115'> +7.8700579e+04 </wgt>
<wgt id='1116'> +7.5012779e+04 </wgt>
<wgt id='1117'> +7.7025743e+04 </wgt>
<wgt id='1118'> +7.4714114e+04 </wgt>
<wgt id='1119'> +6.9466952e+04 </wgt>
<wgt id='1120'> +7.4692840e+04 </wgt>
<wgt id='1121'> +8.1573634e+04 </wgt>
<wgt id='1122'> +7.4604915e+04 </wgt>
<wgt id='1123'> +7.1620029e+04 </wgt>
<wgt id='1124'> +7.5962662e+04 </wgt>
<wgt id='1125'> +7.8800399e+04 </wgt>
<wgt id='1126'> +8.0431299e+04 </wgt>
<wgt id='1127'> +7.5025849e+04 </wgt>
<wgt id='1128'> +7.5194090e+04 </wgt>
<wgt id='1129'> +7.7068002e+04 </wgt>
<wgt id='1130'> +6.0409657e+04 </wgt>
<wgt id='1131'> +8.0678915e+04 </wgt>
<wgt id='1132'> +7.1961624e+04 </wgt>
<wgt id='1133'> +8.0090485e+04 </wgt>
<wgt id='1134'> +7.2085554e+04 </wgt>
<wgt id='1135'> +6.7476066e+04 </wgt>
<wgt id='1136'> +6.9446708e+04 </wgt>
<wgt id='1137'> +7.7075920e+04 </wgt>
<wgt id='1138'> +7.7553218e+04 </wgt>
<wgt id='1139'> +6.9421164e+04 </wgt>
<wgt id='1140'> +5.4405973e+04 </wgt>
<wgt id='1141'> +7.6615022e+04 </wgt>
<wgt id='1142'> +6.9961992e+04 </wgt>
<wgt id='1143'> +6.9015271e+04 </wgt>
<wgt id='1144'> +6.6125573e+04 </wgt>
<wgt id='1145'> +9.0006509e+04 </wgt>
<wgt id='1146'> +7.4178401e+04 </wgt>
<wgt id='1147'> +7.9405207e+04 </wgt>
<wgt id='1148'> +7.0483371e+04 </wgt>
<wgt id='1149'> +7.2969012e+04 </wgt>
<wgt id='1150'> +7.6352107e+04 </wgt>
<wgt id='1151'> +7.2580558e+04 </wgt>
<wgt id='1152'> +7.4026702e+04 </wgt>
<wgt id='1153'> +7.7498018e+04 </wgt>
<wgt id='1154'> +7.0775188e+04 </wgt>
<wgt id='1155'> +7.8548156e+04 </wgt>
<wgt id='1156'> +6.4720985e+04 </wgt>
<wgt id='1157'> +6.4187466e+04 </wgt>
<wgt id='1158'> +8.3289318e+04 </wgt>
<wgt id='1159'> +7.1482023e+04 </wgt>
<wgt id='1160'> +7.7068698e+04 </wgt>
<wgt id='1161'> +8.1592218e+04 </wgt>
<wgt id='1162'> +6.9703057e+04 </wgt>
<wgt id='1163'> +7.2938473e+04 </wgt>
<wgt id='1164'> +7.4492748e+04 </wgt>
<wgt id='1165'> +7.7768031e+04 </wgt>
<wgt id='1166'> +7.4832040e+04 </wgt>
<wgt id='1167'> +7.0198108e+04 </wgt>
<wgt id='1168'> +7.2389789e+04 </wgt>
<wgt id='1169'> +7.3728662e+04 </wgt>
<wgt id='1170'> +6.5956536e+04 </wgt>
<wgt id='1171'> +7.4980920e+04 </wgt>
<wgt id='1172'> +6.7095725e+04 </wgt>
<wgt id='1173'> +6.3552009e+04 </wgt>
<wgt id='1174'> +7.2859327e+04 </wgt>
<wgt id='1175'> +7.7905943e+04 </wgt>
<wgt id='1176'> +6.4867715e+04 </wgt>
<wgt id='1177'> +8.4394595e+04 </wgt>
<wgt id='1178'> +7.3672579e+04 </wgt>
<wgt id='1179'> +7.8713540e+04 </wgt>
<wgt id='1180'> +7.6701535e+04 </wgt>
<wgt id='1181'> +6.9183215e+04 </wgt>
<wgt id='1182'> +7.6696376e+04 </wgt>
<wgt id='1183'> +8.0235946e+04 </wgt>
<wgt id='1184'> +6.8079475e+04 </wgt>
<wgt id='1185'> +7.5162298e+04 </wgt>
<wgt id='1186'> +9.1691739e+04 </wgt>
<wgt id='1187'> +8.7651554e+04 </wgt>
<wgt id='1188'> +7.7809413e+04 </wgt>
<wgt id='1189'> +5.9379465e+04 </wgt>
<wgt id='1190'> +8.2366634e+04 </wgt>
<wgt id='1191'> +7.4658207e+04 </wgt>
<wgt id='1192'> +7.6169150e+04 </wgt>
<wgt id='1193'> +6.9571760e+04 </wgt>
<wgt id='1194'> +7.5813282e+04 </wgt>
<wgt id='1195'> +7.7068002e+04 </wgt>
<wgt id='1196'> +7.7447031e+04 </wgt>
<wgt id='1197'> +7.9429750e+04 </wgt>
<wgt id='1198'> +7.7259161e+04 </wgt>
<wgt id='1199'> +7.0148826e+04 </wgt>
<wgt id='1200'> +8.0328010e+04 </wgt>
<wgt id='1201'> +6.9174579e+04 </wgt>
<wgt id='1202'> +9.2332442e+04 </wgt>
<wgt id='1203'> +7.8592414e+04 </wgt>
<wgt id='1204'> +7.2389683e+04 </wgt>
<wgt id='1205'> +8.5116563e+04 </wgt>
<wgt id='1206'> +7.7058850e+04 </wgt>
<wgt id='1207'> +7.7360787e+04 </wgt>
<wgt id='1208'> +8.4258242e+04 </wgt>
<wgt id='1209'> +7.4882156e+04 </wgt>
<wgt id='1210'> +6.4856788e+04 </wgt>
<wgt id='1211'> +7.0803663e+04 </wgt>
<wgt id='1212'> +8.3113468e+04 </wgt>
<wgt id='1213'> +7.2301949e+04 </wgt>
<wgt id='1214'> +7.3640092e+04 </wgt>
<wgt id='1215'> +5.0488193e+04 </wgt>
<wgt id='1216'> +5.5311027e+04 </wgt>
<wgt id='1217'> +5.9811958e+04 </wgt>
<wgt id='1218'> +6.4116421e+04 </wgt>
<wgt id='1219'> +7.0758545e+04 </wgt>
<wgt id='1220'> +7.5424299e+04 </wgt>
<wgt id='1221'> +8.3107588e+04 </wgt>
<wgt id='1222'> +8.8664771e+04 </wgt>
<wgt id='1223'> +6.7524627e+04 </wgt>
<wgt id='1224'> +6.7542418e+04 </wgt>
<wgt id='1225'> +6.7445261e+04 </wgt>
<wgt id='1226'> +6.7377873e+04 </wgt>
<wgt id='1227'> +6.4775787e+04 </wgt>
<wgt id='1228'> +6.6999252e+04 </wgt>
<wgt id='1229'> +6.7575381e+04 </wgt>
<wgt id='1230'> +6.6609891e+04 </wgt>
<wgt id='1231'> +6.7988574e+04 </wgt>
<wgt id='1232'> +6.6611781e+04 </wgt>
<wgt id='1233'> +6.9676233e+04 </wgt>
<wgt id='1234'> +6.7722521e+04 </wgt>
<wgt id='1235'> +6.7183625e+04 </wgt>
<wgt id='1236'> +6.7397360e+04 </wgt>
<wgt id='1237'> +6.6153117e+04 </wgt>
<wgt id='1238'> +6.8669610e+04 </wgt>
<wgt id='1239'> +6.6478551e+04 </wgt>
<wgt id='1240'> +6.8259142e+04 </wgt>
<wgt id='1241'> +6.7702138e+04 </wgt>
<wgt id='1242'> +6.7702128e+04 </wgt>
<wgt id='1243'> +6.7989278e+04 </wgt>
<wgt id='1244'> +6.6211117e+04 </wgt>
<wgt id='1245'> +6.7528885e+04 </wgt>
<wgt id='1246'> +6.6974604e+04 </wgt>
<wgt id='1247'> +6.6631953e+04 </wgt>
<wgt id='1248'> +6.7958534e+04 </wgt>
<wgt id='1249'> +6.7691799e+04 </wgt>
<wgt id='1250'> +6.7880168e+04 </wgt>
<wgt id='1251'> +6.7089998e+04 </wgt>
<wgt id='1252'> +6.6369060e+04 </wgt>
<wgt id='1253'> +6.8064952e+04 </wgt>
<wgt id='1254'> +6.8211313e+04 </wgt>
<wgt id='1255'> +6.7791746e+04 </wgt>
<wgt id='1256'> +6.7823695e+04 </wgt>
<wgt id='1257'> +6.8032452e+04 </wgt>
<wgt id='1258'> +6.8088248e+04 </wgt>
<wgt id='1259'> +6.8202280e+04 </wgt>
<wgt id='1260'> +6.8045680e+04 </wgt>
<wgt id='1261'> +6.8202949e+04 </wgt>
<wgt id='1262'> +6.7842635e+04 </wgt>
<wgt id='1263'> +6.7608390e+04 </wgt>
<wgt id='1264'> +6.8389498e+04 </wgt>
<wgt id='1265'> +6.7841199e+04 </wgt>
<wgt id='1266'> +6.6821749e+04 </wgt>
<wgt id='1267'> +6.8100912e+04 </wgt>
<wgt id='1268'> +6.7354713e+04 </wgt>
<wgt id='1269'> +6.7860544e+04 </wgt>
<wgt id='1270'> +6.7535787e+04 </wgt>
<wgt id='1271'> +6.6991484e+04 </wgt>
<wgt id='1272'> +6.7230831e+04 </wgt>
<wgt id='1273'> +6.7165586e+04 </wgt>
<wgt id='1274'> +6.6954865e+04 </wgt>
<wgt id='1275'> +6.7847026e+04 </wgt>
<wgt id='1276'> +6.8046139e+04 </wgt>
<wgt id='1277'> +6.7588215e+04 </wgt>
<wgt id='1278'> +6.7514998e+04 </wgt>
<wgt id='1279'> +6.7273021e+04 </wgt>
<wgt id='1280'> +6.8151999e+04 </wgt>
<wgt id='1281'> +6.8008352e+04 </wgt>
<wgt id='1282'> +6.7217997e+04 </wgt>
<wgt id='1283'> +6.7037077e+04 </wgt>
<wgt id='1284'> +6.7099549e+04 </wgt>
<wgt id='1285'> +6.7144193e+04 </wgt>
<wgt id='1286'> +6.6579419e+04 </wgt>
<wgt id='1287'> +6.7645675e+04 </wgt>
<wgt id='1288'> +6.7400848e+04 </wgt>
<wgt id='1289'> +6.7185586e+04 </wgt>
<wgt id='1290'> +6.8180315e+04 </wgt>
<wgt id='1291'> +6.7581206e+04 </wgt>
<wgt id='1292'> +6.8302958e+04 </wgt>
<wgt id='1293'> +6.7814999e+04 </wgt>
<wgt id='1294'> +6.7494746e+04 </wgt>
<wgt id='1295'> +6.7082738e+04 </wgt>
<wgt id='1296'> +6.7941277e+04 </wgt>
<wgt id='1297'> +6.7026355e+04 </wgt>
<wgt id='1298'> +6.7781364e+04 </wgt>
<wgt id='1299'> +6.7707528e+04 </wgt>
<wgt id='1300'> +6.6957322e+04 </wgt>
<wgt id='1301'> +6.7481152e+04 </wgt>
<wgt id='1302'> +6.7786058e+04 </wgt>
<wgt id='1303'> +6.7841765e+04 </wgt>
<wgt id='1304'> +6.7481179e+04 </wgt>
<wgt id='1305'> +6.7635025e+04 </wgt>
<wgt id='1306'> +6.7148873e+04 </wgt>
<wgt id='1307'> +6.7799921e+04 </wgt>
<wgt id='1308'> +6.7484061e+04 </wgt>
<wgt id='1309'> +6.7821109e+04 </wgt>
<wgt id='1310'> +6.7726174e+04 </wgt>
<wgt id='1311'> +6.7984987e+04 </wgt>
<wgt id='1312'> +6.7847327e+04 </wgt>
<wgt id='1313'> +6.7561577e+04 </wgt>
<wgt id='1314'> +6.7390463e+04 </wgt>
<wgt id='1315'> +6.7721314e+04 </wgt>
<wgt id='1316'> +6.7369248e+04 </wgt>
<wgt id='1317'> +6.7144581e+04 </wgt>
<wgt id='1318'> +6.6858045e+04 </wgt>
<wgt id='1319'> +6.7667975e+04 </wgt>
<wgt id='1320'> +6.7577210e+04 </wgt>
<wgt id='1321'> +6.7810949e+04 </wgt>
<wgt id='1322'> +6.6887569e+04 </wgt>
<wgt id='1323'> +6.7611586e+04 </wgt>
<wgt id='1324'> +6.2483576e+04 </wgt>
<wgt id='1325'> +7.1570822e+04 </wgt>
<wgt id='1326'> +8.7151698e+04 </wgt>
<wgt id='1327'> +8.1159902e+04 </wgt>
<wgt id='1328'> +7.7600243e+04 </wgt>
<wgt id='1329'> +7.6906482e+04 </wgt>
<wgt id='1330'> +7.9800307e+04 </wgt>
<wgt id='1331'> +7.5123045e+04 </wgt>
<wgt id='1332'> +7.8283001e+04 </wgt>
<wgt id='1333'> +7.7020165e+04 </wgt>
<wgt id='1334'> +7.6034717e+04 </wgt>
<wgt id='1335'> +8.3516676e+04 </wgt>
<wgt id='1336'> +7.3667806e+04 </wgt>
<wgt id='1337'> +7.9460570e+04 </wgt>
<wgt id='1338'> +7.6634044e+04 </wgt>
<wgt id='1339'> +7.7476301e+04 </wgt>
<wgt id='1340'> +7.8946386e+04 </wgt>
<wgt id='1341'> +8.3569281e+04 </wgt>
<wgt id='1342'> +7.7982123e+04 </wgt>
<wgt id='1343'> +7.7086807e+04 </wgt>
<wgt id='1344'> +7.7611405e+04 </wgt>
<wgt id='1345'> +7.7378837e+04 </wgt>
<wgt id='1346'> +8.2068429e+04 </wgt>
<wgt id='1347'> +7.7170495e+04 </wgt>
<wgt id='1348'> +7.6539015e+04 </wgt>
<wgt id='1349'> +7.4816390e+04 </wgt>
<wgt id='1350'> +7.7733137e+04 </wgt>
<wgt id='1351'> +7.6781726e+04 </wgt>
<wgt id='1352'> +8.1693530e+04 </wgt>
<wgt id='1353'> +7.5561937e+04 </wgt>
<wgt id='1354'> +7.8376189e+04 </wgt>
<wgt id='1355'> +7.7400805e+04 </wgt>
<wgt id='1356'> +7.6536848e+04 </wgt>
<wgt id='1357'> +7.6707597e+04 </wgt>
<wgt id='1358'> +7.7385224e+04 </wgt>
<wgt id='1359'> +7.8884643e+04 </wgt>
<wgt id='1360'> +7.6600732e+04 </wgt>
<wgt id='1361'> +7.7107628e+04 </wgt>
<wgt id='1362'> +7.9389036e+04 </wgt>
<wgt id='1363'> +7.5404904e+04 </wgt>
<wgt id='1364'> +7.7088654e+04 </wgt>
<wgt id='1365'> +7.6872378e+04 </wgt>
<wgt id='1366'> +7.4900090e+04 </wgt>
<wgt id='1367'> +7.6993660e+04 </wgt>
<wgt id='1368'> +8.0903380e+04 </wgt>
<wgt id='1369'> +7.8681381e+04 </wgt>
<wgt id='1370'> +7.7213047e+04 </wgt>
<wgt id='1371'> +7.6089101e+04 </wgt>
<wgt id='1372'> +7.5783366e+04 </wgt>
<wgt id='1373'> +8.1948091e+04 </wgt>
<wgt id='1374'> +7.7038699e+04 </wgt>
<wgt id='1375'> +7.8179442e+04 </wgt>
<wgt id='1376'> +7.6471889e+04 </wgt>
<wgt id='1377'> +7.8980981e+04 </wgt>
<wgt id='1378'> +7.9777943e+04 </wgt>
<wgt id='1379'> +7.8350441e+04 </wgt>
<wgt id='1380'> +7.5992289e+04 </wgt>
<wgt id='1381'> +7.0820454e+04 </wgt>
<wgt id='1382'> +7.5680570e+04 </wgt>
<wgt id='1383'> +7.7047796e+04 </wgt>
<wgt id='1384'> +7.5245922e+04 </wgt>
<wgt id='1385'> +7.6088022e+04 </wgt>
<wgt id='1386'> +8.0246911e+04 </wgt>
<wgt id='1387'> +7.9131904e+04 </wgt>
<wgt id='1388'> +7.5986613e+04 </wgt>
<wgt id='1389'> +7.7666285e+04 </wgt>
<wgt id='1390'> +7.7919133e+04 </wgt>
<wgt id='1391'> +7.9717912e+04 </wgt>
<wgt id='1392'> +7.8193114e+04 </wgt>
<wgt id='1393'> +8.0994524e+04 </wgt>
<wgt id='1394'> +7.6872378e+04 </wgt>
<wgt id='1395'> +7.7771887e+04 </wgt>
<wgt id='1396'> +7.6771889e+04 </wgt>
<wgt id='1397'> +7.6652584e+04 </wgt>
<wgt id='1398'> +7.8336056e+04 </wgt>
<wgt id='1399'> +7.9104553e+04 </wgt>
<wgt id='1400'> +7.6947050e+04 </wgt>
<wgt id='1401'> +7.7843640e+04 </wgt>
<wgt id='1402'> +7.6634757e+04 </wgt>
<wgt id='1403'> +7.7690727e+04 </wgt>
<wgt id='1404'> +7.6707346e+04 </wgt>
<wgt id='1405'> +7.6687909e+04 </wgt>
<wgt id='1406'> +7.6418448e+04 </wgt>
<wgt id='1407'> +7.6429519e+04 </wgt>
<wgt id='1408'> +7.7650715e+04 </wgt>
<wgt id='1409'> +7.7206056e+04 </wgt>
<wgt id='1410'> +7.5348149e+04 </wgt>
<wgt id='1411'> +7.7993189e+04 </wgt>
<wgt id='1412'> +7.7057430e+04 </wgt>
<wgt id='1413'> +7.8767134e+04 </wgt>
<wgt id='1414'> +7.9678093e+04 </wgt>
<wgt id='1415'> +7.8013852e+04 </wgt>
<wgt id='1416'> +8.0552607e+04 </wgt>
<wgt id='1417'> +7.6376271e+04 </wgt>
<wgt id='1418'> +7.4804310e+04 </wgt>
<wgt id='1419'> +7.7464785e+04 </wgt>
<wgt id='1420'> +7.5801751e+04 </wgt>
<wgt id='1421'> +7.8305191e+04 </wgt>
<wgt id='1422'> +7.7778608e+04 </wgt>
<wgt id='1423'> +8.0125062e+04 </wgt>
<wgt id='1424'> +7.8451010e+04 </wgt>
<wgt id='1425'> +7.5258960e+04 </wgt>
<wgt id='1426'> +7.6954906e+04 </wgt>
<wgt id='1427'> +7.9539743e+04 </wgt>
<wgt id='1428'> +7.7401652e+04 </wgt>
<wgt id='1429'> +7.6076498e+04 </wgt>
<wgt id='1430'> +7.9811621e+04 </wgt>
<wgt id='1431'> +7.7838212e+04 </wgt>
<wgt id='1432'> +7.7801750e+04 </wgt>
<wgt id='1433'> +7.8109829e+04 </wgt>
<wgt id='1434'> +7.7763412e+04 </wgt>
<wgt id='1435'> +7.7610114e+04 </wgt>
<wgt id='1436'> +7.8755114e+04 </wgt>
<wgt id='1437'> +7.7835225e+04 </wgt>
<wgt id='1438'> +7.7960638e+04 </wgt>
<wgt id='1439'> +7.7833574e+04 </wgt>
<wgt id='1440'> +7.7809613e+04 </wgt>
<wgt id='1441'> +7.7792660e+04 </wgt>
<wgt id='1442'> +7.7704683e+04 </wgt>
<wgt id='1443'> +7.8189161e+04 </wgt>
<wgt id='1444'> +7.7762610e+04 </wgt>
<wgt id='1445'> +7.7642708e+04 </wgt>
<wgt id='1446'> +7.7949342e+04 </wgt>
<wgt id='1447'> +7.7583386e+04 </wgt>
<wgt id='1448'> +7.7851011e+04 </wgt>
<wgt id='1449'> +7.7718619e+04 </wgt>
<wgt id='1450'> +7.8218666e+04 </wgt>
<wgt id='1451'> +7.8320334e+04 </wgt>
<wgt id='1452'> +7.7724604e+04 </wgt>
<wgt id='1453'> +7.8317129e+04 </wgt>
<wgt id='1454'> +7.7625839e+04 </wgt>
<wgt id='1455'> +7.7751564e+04 </wgt>
<wgt id='1456'> +7.8202445e+04 </wgt>
<wgt id='1457'> +7.7883372e+04 </wgt>
<wgt id='1458'> +7.8505607e+04 </wgt>
<wgt id='1459'> +7.8122280e+04 </wgt>
<wgt id='1460'> +7.7430842e+04 </wgt>
<wgt id='1461'> +7.7822670e+04 </wgt>
<wgt id='1462'> +7.8350923e+04 </wgt>
<wgt id='1463'> +7.8212581e+04 </wgt>
<wgt id='1464'> +7.8269613e+04 </wgt>
<wgt id='1465'> +7.7509614e+04 </wgt>
<wgt id='1466'> +7.8054386e+04 </wgt>
<wgt id='1467'> +7.7685059e+04 </wgt>
<wgt id='1468'> +7.7828102e+04 </wgt>
<wgt id='1469'> +7.7925136e+04 </wgt>
<wgt id='1470'> +7.7728618e+04 </wgt>
<wgt id='1471'> +7.7593438e+04 </wgt>
<wgt id='1472'> +7.7690902e+04 </wgt>
<wgt id='1473'> +7.7556572e+04 </wgt>
<wgt id='1474'> +7.7726291e+04 </wgt>
<wgt id='1475'> +7.7972533e+04 </wgt>
<wgt id='1476'> +7.7793497e+04 </wgt>
<wgt id='1477'> +7.7569662e+04 </wgt>
<wgt id='1478'> +7.7652883e+04 </wgt>
<wgt id='1479'> +7.7587986e+04 </wgt>
<wgt id='1480'> +7.7869631e+04 </wgt>
<wgt id='1481'> +7.8045594e+04 </wgt>
<wgt id='1482'> +7.6076498e+04 </wgt>
<wgt id='1483'> +7.9811621e+04 </wgt>
<wgt id='1484'> +8.3377643e+04 </wgt>
<wgt id='1485'> +8.2683424e+04 </wgt>
<wgt id='1486'> +8.1989927e+04 </wgt>
<wgt id='1487'> +8.4042135e+04 </wgt>
<wgt id='1488'> +8.5151447e+04 </wgt>
<wgt id='1489'> +8.3956752e+04 </wgt>
<wgt id='1490'> +8.2880877e+04 </wgt>
<wgt id='1491'> +8.3965217e+04 </wgt>
<wgt id='1492'> +8.4022614e+04 </wgt>
<wgt id='1493'> +8.4216538e+04 </wgt>
<wgt id='1494'> +8.3394975e+04 </wgt>
<wgt id='1495'> +8.4854170e+04 </wgt>
<wgt id='1496'> +8.3862302e+04 </wgt>
<wgt id='1497'> +8.6760835e+04 </wgt>
<wgt id='1498'> +8.3400993e+04 </wgt>
<wgt id='1499'> +8.3056151e+04 </wgt>
<wgt id='1500'> +8.2779800e+04 </wgt>
<wgt id='1501'> +8.3573793e+04 </wgt>
<wgt id='1502'> +8.2282662e+04 </wgt>
<wgt id='1503'> +8.3541229e+04 </wgt>
<wgt id='1504'> +8.4021672e+04 </wgt>
<wgt id='1505'> +8.2560009e+04 </wgt>
<wgt id='1506'> +8.4775506e+04 </wgt>
<wgt id='1507'> +8.3077083e+04 </wgt>
<wgt id='1508'> +8.4684321e+04 </wgt>
<wgt id='1509'> +8.2627172e+04 </wgt>
<wgt id='1510'> +8.3389456e+04 </wgt>
<wgt id='1511'> +8.2779796e+04 </wgt>
<wgt id='1512'> +8.3703517e+04 </wgt>
<wgt id='1513'> +8.3526282e+04 </wgt>
<wgt id='1514'> +8.3415766e+04 </wgt>
<wgt id='1515'> +8.3793649e+04 </wgt>
<wgt id='1516'> +8.2902531e+04 </wgt>
<wgt id='1517'> +8.2218465e+04 </wgt>
<wgt id='1518'> +8.3865653e+04 </wgt>
<wgt id='1519'> +8.3657857e+04 </wgt>
<wgt id='1520'> +8.2048360e+04 </wgt>
<wgt id='1521'> +8.2880018e+04 </wgt>
<wgt id='1522'> +8.3354735e+04 </wgt>
<wgt id='1523'> +8.4352614e+04 </wgt>
<wgt id='1524'> +8.2789582e+04 </wgt>
<wgt id='1525'> +8.1993278e+04 </wgt>
<wgt id='1526'> +8.1338261e+04 </wgt>
<wgt id='1527'> +8.3648411e+04 </wgt>
<wgt id='1528'> +8.3031501e+04 </wgt>
<wgt id='1529'> +8.3853784e+04 </wgt>
<wgt id='1530'> +8.3502261e+04 </wgt>
<wgt id='1531'> +8.3984267e+04 </wgt>
<wgt id='1532'> +8.4696901e+04 </wgt>
<wgt id='1533'> +8.4136869e+04 </wgt>
<wgt id='1534'> +8.3693599e+04 </wgt>
<wgt id='1535'> +8.4130670e+04 </wgt>
<wgt id='1536'> +8.2277139e+04 </wgt>
<wgt id='1537'> +8.2240863e+04 </wgt>
<wgt id='1538'> +8.3205125e+04 </wgt>
<wgt id='1539'> +8.3561718e+04 </wgt>
<wgt id='1540'> +8.4801862e+04 </wgt>
<wgt id='1541'> +8.4374807e+04 </wgt>
<wgt id='1542'> +8.4569247e+04 </wgt>
<wgt id='1543'> +8.2981791e+04 </wgt>
<wgt id='1544'> +8.3260439e+04 </wgt>
<wgt id='1545'> +8.1742950e+04 </wgt>
<wgt id='1546'> +8.3224603e+04 </wgt>
<wgt id='1547'> +8.2667848e+04 </wgt>
<wgt id='1548'> +8.3717134e+04 </wgt>
<wgt id='1549'> +8.4638572e+04 </wgt>
<wgt id='1550'> +8.3886739e+04 </wgt>
<wgt id='1551'> +8.3995366e+04 </wgt>
<wgt id='1552'> +8.1989286e+04 </wgt>
<wgt id='1553'> +8.4401262e+04 </wgt>
<wgt id='1554'> +8.2272005e+04 </wgt>
<wgt id='1555'> +8.3721914e+04 </wgt>
<wgt id='1556'> +8.2491776e+04 </wgt>
<wgt id='1557'> +8.3522356e+04 </wgt>
<wgt id='1558'> +8.2784625e+04 </wgt>
<wgt id='1559'> +8.2890466e+04 </wgt>
<wgt id='1560'> +8.1833061e+04 </wgt>
<wgt id='1561'> +8.3441245e+04 </wgt>
<wgt id='1562'> +8.4374743e+04 </wgt>
<wgt id='1563'> +8.3429080e+04 </wgt>
<wgt id='1564'> +8.2779976e+04 </wgt>
<wgt id='1565'> +8.3698115e+04 </wgt>
<wgt id='1566'> +8.5665386e+04 </wgt>
<wgt id='1567'> +8.4280957e+04 </wgt>
<wgt id='1568'> +8.3173629e+04 </wgt>
<wgt id='1569'> +8.3349597e+04 </wgt>
<wgt id='1570'> +8.2530850e+04 </wgt>
<wgt id='1571'> +8.4098830e+04 </wgt>
<wgt id='1572'> +8.3748815e+04 </wgt>
<wgt id='1573'> +8.3636215e+04 </wgt>
<wgt id='1574'> +8.5286739e+04 </wgt>
<wgt id='1575'> +8.1063226e+04 </wgt>
<wgt id='1576'> +8.2915065e+04 </wgt>
<wgt id='1577'> +8.2533839e+04 </wgt>
<wgt id='1578'> +8.0385922e+04 </wgt>
<wgt id='1579'> +8.4244579e+04 </wgt>
<wgt id='1580'> +8.2601964e+04 </wgt>
<wgt id='1581'> +8.2429197e+04 </wgt>
<wgt id='1582'> +8.2364223e+04 </wgt>
<wgt id='1583'> +8.1683811e+04 </wgt>
<wgt id='1584'> +8.4151738e+04 </wgt>
<wgt id='1585'> +7.3323696e+04 </wgt>
<wgt id='1586'> +5.7809836e+04 </wgt>
<wgt id='1587'> +7.4643192e+04 </wgt>
<wgt id='1588'> +7.6076498e+04 </wgt>
<wgt id='1589'> +7.7194441e+04 </wgt>
<wgt id='1590'> +7.8518315e+04 </wgt>
<wgt id='1591'> +7.9811621e+04 </wgt>
<wgt id='1592'> +8.1502415e+04 </wgt>
<wgt id='1593'> +8.5815939e+04 </wgt>
<wgt id='1594'> +8.4735385e+04 </wgt>
<wgt id='1595'> +8.6584946e+04 </wgt>
<wgt id='1596'> +8.9871554e+04 </wgt>
<wgt id='1597'> +8.1854746e+04 </wgt>
<wgt id='1598'> +9.1977882e+04 </wgt>
<wgt id='1599'> +8.2606840e+04 </wgt>
<wgt id='1600'> +9.1100293e+04 </wgt>
<wgt id='1601'> +8.1648741e+04 </wgt>
<wgt id='1602'> +8.7192970e+04 </wgt>
<wgt id='1603'> +8.4917038e+04 </wgt>
<wgt id='1604'> +8.4632280e+04 </wgt>
<wgt id='1605'> +8.8426354e+04 </wgt>
<wgt id='1606'> +8.5655736e+04 </wgt>
<wgt id='1607'> +8.5502398e+04 </wgt>
<wgt id='1608'> +8.9317325e+04 </wgt>
<wgt id='1609'> +8.2699746e+04 </wgt>
<wgt id='1610'> +8.6375557e+04 </wgt>
<wgt id='1611'> +8.5254141e+04 </wgt>
<wgt id='1612'> +8.5730023e+04 </wgt>
<wgt id='1613'> +8.5594880e+04 </wgt>
<wgt id='1614'> +8.4528277e+04 </wgt>
<wgt id='1615'> +8.8275176e+04 </wgt>
<wgt id='1616'> +8.8052773e+04 </wgt>
<wgt id='1617'> +8.2928045e+04 </wgt>
<wgt id='1618'> +8.5448986e+04 </wgt>
<wgt id='1619'> +8.7051826e+04 </wgt>
<wgt id='1620'> +8.2611409e+04 </wgt>
<wgt id='1621'> +9.0410499e+04 </wgt>
<wgt id='1622'> +8.3943269e+04 </wgt>
<wgt id='1623'> +8.6933108e+04 </wgt>
<wgt id='1624'> +8.5061358e+04 </wgt>
<wgt id='1625'> +8.5900495e+04 </wgt>
<wgt id='1626'> +8.5860650e+04 </wgt>
<wgt id='1627'> +8.5081711e+04 </wgt>
<wgt id='1628'> +8.2186124e+04 </wgt>
<wgt id='1629'> +9.0844515e+04 </wgt>
<wgt id='1630'> +8.2751803e+04 </wgt>
<wgt id='1631'> +8.9869043e+04 </wgt>
<wgt id='1632'> +8.2510085e+04 </wgt>
<wgt id='1633'> +9.1512550e+04 </wgt>
<wgt id='1634'> +8.6211443e+04 </wgt>
<wgt id='1635'> +8.5609650e+04 </wgt>
<wgt id='1636'> +9.2603633e+04 </wgt>
<wgt id='1637'> +8.2515879e+04 </wgt>
<wgt id='1638'> +8.3863336e+04 </wgt>
<wgt id='1639'> +8.7475928e+04 </wgt>
<wgt id='1640'> +8.2266928e+04 </wgt>
<wgt id='1641'> +8.8855542e+04 </wgt>
<wgt id='1642'> +9.2414991e+04 </wgt>
<wgt id='1643'> +8.1929831e+04 </wgt>
<wgt id='1644'> +8.3365524e+04 </wgt>
<wgt id='1645'> +8.9637160e+04 </wgt>
<wgt id='1646'> +9.1063362e+04 </wgt>
<wgt id='1647'> +8.2562472e+04 </wgt>
<wgt id='1648'> +8.6347903e+04 </wgt>
<wgt id='1649'> +8.5590186e+04 </wgt>
<wgt id='1650'> +8.6084943e+04 </wgt>
<wgt id='1651'> +8.5030750e+04 </wgt>
<wgt id='1652'> +8.1126860e+04 </wgt>
<wgt id='1653'> +8.3525833e+04 </wgt>
<wgt id='1654'> +8.8007553e+04 </wgt>
<wgt id='1655'> +9.0124474e+04 </wgt>
<wgt id='1656'> +8.8347850e+04 </wgt>
<wgt id='1657'> +8.8586182e+04 </wgt>
<wgt id='1658'> +8.7606879e+04 </wgt>
<wgt id='1659'> +8.8556958e+04 </wgt>
<wgt id='1660'> +8.8144174e+04 </wgt>
<wgt id='1661'> +8.8393821e+04 </wgt>
<wgt id='1662'> +8.7699032e+04 </wgt>
<wgt id='1663'> +8.8715737e+04 </wgt>
<wgt id='1664'> +8.7317262e+04 </wgt>
<wgt id='1665'> +8.7197331e+04 </wgt>
<wgt id='1666'> +8.8720920e+04 </wgt>
<wgt id='1667'> +9.0332942e+04 </wgt>
<wgt id='1668'> +8.6936281e+04 </wgt>
<wgt id='1669'> +8.9746708e+04 </wgt>
<wgt id='1670'> +8.6987330e+04 </wgt>
<wgt id='1671'> +8.7567360e+04 </wgt>
<wgt id='1672'> +8.9636793e+04 </wgt>
<wgt id='1673'> +8.7224436e+04 </wgt>
<wgt id='1674'> +8.9301977e+04 </wgt>
<wgt id='1675'> +8.6152588e+04 </wgt>
<wgt id='1676'> +9.0432769e+04 </wgt>
<wgt id='1677'> +9.0081301e+04 </wgt>
<wgt id='1678'> +8.6726801e+04 </wgt>
<wgt id='1679'> +8.6855748e+04 </wgt>
<wgt id='1680'> +9.1147219e+04 </wgt>
<wgt id='1681'> +8.7815793e+04 </wgt>
<wgt id='1682'> +8.8268239e+04 </wgt>
<wgt id='1683'> +8.6692715e+04 </wgt>
<wgt id='1684'> +9.0028312e+04 </wgt>
<wgt id='1685'> +8.6523128e+04 </wgt>
<wgt id='1686'> +9.0232888e+04 </wgt>
<wgt id='1687'> +8.6334401e+04 </wgt>
<wgt id='1688'> +9.1175048e+04 </wgt>
<wgt id='1689'> +8.6771200e+04 </wgt>
<wgt id='1690'> +9.0231607e+04 </wgt>
<wgt id='1691'> +8.6241400e+04 </wgt>
<wgt id='1692'> +9.0699335e+04 </wgt>
<wgt id='1693'> +8.3257166e+04 </wgt>
<wgt id='1694'> +9.6289799e+04 </wgt>
<wgt id='1695'> +8.8977523e+04 </wgt>
<wgt id='1696'> +8.7042112e+04 </wgt>
<wgt id='1697'> +8.6565449e+04 </wgt>
<wgt id='1698'> +9.0677258e+04 </wgt>
<wgt id='1699'> +9.0814572e+04 </wgt>
<wgt id='1700'> +8.4737557e+04 </wgt>
<wgt id='1701'> +9.2665102e+04 </wgt>
<wgt id='1702'> +8.5608475e+04 </wgt>
<wgt id='1703'> +9.0031188e+04 </wgt>
<wgt id='1704'> +8.7221189e+04 </wgt>
<wgt id='1705'> +8.6502467e+04 </wgt>
<wgt id='1706'> +9.0796942e+04 </wgt>
<wgt id='1707'> +8.6481655e+04 </wgt>
<wgt id='1708'> +8.9639036e+04 </wgt>
<wgt id='1709'> +9.1192528e+04 </wgt>
<wgt id='1710'> +8.6186360e+04 </wgt>
<wgt id='1711'> +9.0472575e+04 </wgt>
<wgt id='1712'> +8.6576362e+04 </wgt>
<wgt id='1713'> +8.7583146e+04 </wgt>
<wgt id='1714'> +8.8159260e+04 </wgt>
<wgt id='1715'> +8.9469494e+04 </wgt>
<wgt id='1716'> +8.7220190e+04 </wgt>
<wgt id='1717'> +8.6977712e+04 </wgt>
<wgt id='1718'> +8.6828814e+04 </wgt>
<wgt id='1719'> +8.7168290e+04 </wgt>
<wgt id='1720'> +8.7057047e+04 </wgt>
<wgt id='1721'> +8.6905260e+04 </wgt>
<wgt id='1722'> +8.7556730e+04 </wgt>
<wgt id='1723'> +8.6029749e+04 </wgt>
<wgt id='1724'> +8.7586794e+04 </wgt>
<wgt id='1725'> +8.6483231e+04 </wgt>
<wgt id='1726'> +8.7412227e+04 </wgt>
<wgt id='1727'> +8.6530170e+04 </wgt>
<wgt id='1728'> +8.9015220e+04 </wgt>
<wgt id='1729'> +8.5008518e+04 </wgt>
<wgt id='1730'> +8.5317056e+04 </wgt>
<wgt id='1731'> +8.8159461e+04 </wgt>
<wgt id='1732'> +8.5810596e+04 </wgt>
<wgt id='1733'> +8.5810596e+04 </wgt>
<wgt id='1734'> +8.8199147e+04 </wgt>
<wgt id='1735'> +8.6156996e+04 </wgt>
<wgt id='1736'> +8.7944060e+04 </wgt>
<wgt id='1737'> +8.5647228e+04 </wgt>
<wgt id='1738'> +8.5174247e+04 </wgt>
<wgt id='1739'> +9.0097347e+04 </wgt>
<wgt id='1740'> +8.7108110e+04 </wgt>
<wgt id='1741'> +8.6676897e+04 </wgt>
<wgt id='1742'> +8.7275055e+04 </wgt>
<wgt id='1743'> +8.6680188e+04 </wgt>
<wgt id='1744'> +8.7199247e+04 </wgt>
<wgt id='1745'> +8.6379964e+04 </wgt>
<wgt id='1746'> +8.5091365e+04 </wgt>
<wgt id='1747'> +8.8102542e+04 </wgt>
<wgt id='1748'> +8.7300870e+04 </wgt>
<wgt id='1749'> +8.6007141e+04 </wgt>
<wgt id='1750'> +8.6530583e+04 </wgt>
<wgt id='1751'> +8.7460654e+04 </wgt>
<wgt id='1752'> +8.7483364e+04 </wgt>
<wgt id='1753'> +8.6293587e+04 </wgt>
<wgt id='1754'> +8.6570508e+04 </wgt>
<wgt id='1755'> +8.7209342e+04 </wgt>
<wgt id='1756'> +8.6200842e+04 </wgt>
<wgt id='1757'> +8.9028775e+04 </wgt>
<wgt id='1758'> +8.6130671e+04 </wgt>
<wgt id='1759'> +8.7648209e+04 </wgt>
<wgt id='1760'> +8.7276498e+04 </wgt>
<wgt id='1761'> +8.6854669e+04 </wgt>
<wgt id='1762'> +8.5956875e+04 </wgt>
<wgt id='1763'> +8.9462088e+04 </wgt>
<wgt id='1764'> +8.7058529e+04 </wgt>
<wgt id='1765'> +8.6627737e+04 </wgt>
<wgt id='1766'> +8.7074613e+04 </wgt>
<wgt id='1767'> +8.6954345e+04 </wgt>
<wgt id='1768'> +8.6534052e+04 </wgt>
<wgt id='1769'> +8.7397246e+04 </wgt>
<wgt id='1770'> +8.7700404e+04 </wgt>
<wgt id='1771'> +8.6496860e+04 </wgt>
<wgt id='1772'> +8.6668615e+04 </wgt>
<wgt id='1773'> +8.7835989e+04 </wgt>
<wgt id='1774'> +8.7801947e+04 </wgt>
<wgt id='1775'> +8.6401198e+04 </wgt>
<wgt id='1776'> +8.7122235e+04 </wgt>
<wgt id='1777'> +8.6948629e+04 </wgt>
<wgt id='1778'> +8.6478021e+04 </wgt>
<wgt id='1779'> +8.7360855e+04 </wgt>
<wgt id='1780'> +8.5580993e+04 </wgt>
<wgt id='1781'> +8.7496453e+04 </wgt>
<wgt id='1782'> +8.6977712e+04 </wgt>
<wgt id='1783'> +8.7001102e+04 </wgt>
<wgt id='1784'> +8.3431559e+04 </wgt>
<wgt id='1785'> +8.1962159e+04 </wgt>
<wgt id='1786'> +8.7233589e+04 </wgt>
<wgt id='1787'> +8.3224984e+04 </wgt>
<wgt id='1788'> +8.5022997e+04 </wgt>
<wgt id='1789'> +8.3011979e+04 </wgt>
<wgt id='1790'> +8.2438376e+04 </wgt>
<wgt id='1791'> +8.2623626e+04 </wgt>
<wgt id='1792'> +8.4511792e+04 </wgt>
<wgt id='1793'> +8.2353431e+04 </wgt>
<wgt id='1794'> +8.3644096e+04 </wgt>
<wgt id='1795'> +8.5040222e+04 </wgt>
<wgt id='1796'> +8.3612929e+04 </wgt>
<wgt id='1797'> +8.7635871e+04 </wgt>
<wgt id='1798'> +8.2685522e+04 </wgt>
<wgt id='1799'> +8.3119599e+04 </wgt>
<wgt id='1800'> +8.3339584e+04 </wgt>
<wgt id='1801'> +8.1643110e+04 </wgt>
<wgt id='1802'> +8.1755567e+04 </wgt>
<wgt id='1803'> +8.3235711e+04 </wgt>
<wgt id='1804'> +8.3063347e+04 </wgt>
<wgt id='1805'> +8.3436472e+04 </wgt>
<wgt id='1806'> +8.2926242e+04 </wgt>
<wgt id='1807'> +8.3004592e+04 </wgt>
<wgt id='1808'> +8.3310594e+04 </wgt>
<wgt id='1809'> +8.3524718e+04 </wgt>
<wgt id='1810'> +8.3171225e+04 </wgt>
<wgt id='1811'> +8.3493380e+04 </wgt>
<wgt id='1812'> +8.2876983e+04 </wgt>
<wgt id='1813'> +8.2720522e+04 </wgt>
<wgt id='1814'> +8.2504975e+04 </wgt>
<wgt id='1815'> +8.3495906e+04 </wgt>
<wgt id='1816'> +8.2996087e+04 </wgt>
<wgt id='1817'> +8.2271240e+04 </wgt>
<wgt id='1818'> +8.3468160e+04 </wgt>
<wgt id='1819'> +8.3233728e+04 </wgt>
<wgt id='1820'> +8.2840644e+04 </wgt>
<wgt id='1821'> +8.3240140e+04 </wgt>
<wgt id='1822'> +8.2780601e+04 </wgt>
<wgt id='1823'> +8.2611961e+04 </wgt>
<wgt id='1824'> +8.2746343e+04 </wgt>
<wgt id='1825'> +8.1389821e+04 </wgt>
<wgt id='1826'> +8.5226694e+04 </wgt>
<wgt id='1827'> +8.4606221e+04 </wgt>
<wgt id='1828'> +8.4602817e+04 </wgt>
<wgt id='1829'> +8.4593299e+04 </wgt>
<wgt id='1830'> +8.4743445e+04 </wgt>
<wgt id='1831'> +8.4452552e+04 </wgt>
<wgt id='1832'> +8.4803198e+04 </wgt>
<wgt id='1833'> +8.4393376e+04 </wgt>
<wgt id='1834'> +8.4951148e+04 </wgt>
<wgt id='1835'> +8.4243058e+04 </wgt>
<wgt id='1836'> +8.4416380e+04 </wgt>
<wgt id='1837'> +8.4776794e+04 </wgt>
<wgt id='1838'> +8.4946795e+04 </wgt>
<wgt id='1839'> +8.4251817e+04 </wgt>
<wgt id='1840'> +8.4385344e+04 </wgt>
<wgt id='1841'> +8.4815023e+04 </wgt>
<wgt id='1842'> +8.4650260e+04 </wgt>
<wgt id='1843'> +8.4650598e+04 </wgt>
<wgt id='1844'> +8.4596165e+04 </wgt>
<wgt id='1845'> +8.4583755e+04 </wgt>
<wgt id='1846'> +8.4544049e+04 </wgt>
<wgt id='1847'> +8.4650421e+04 </wgt>
<wgt id='1848'> +8.4366797e+04 </wgt>
<wgt id='1849'> +8.4687899e+04 </wgt>
<wgt id='1850'> +8.4181312e+04 </wgt>
<wgt id='1851'> +8.4988118e+04 </wgt>
<wgt id='1852'> +8.3565683e+04 </wgt>
<wgt id='1853'> +8.5345741e+04 </wgt>
<wgt id='1854'> +8.4289066e+04 </wgt>
<wgt id='1855'> +8.5044623e+04 </wgt>
<wgt id='1856'> +9.2064641e+04 </wgt>
<wgt id='1857'> +9.2039345e+04 </wgt>
<wgt id='1858'> +9.2078589e+04 </wgt>
<wgt id='1859'> +9.2002007e+04 </wgt>
<wgt id='1860'> +9.2067440e+04 </wgt>
<wgt id='1861'> +9.2241352e+04 </wgt>
<wgt id='1862'> +9.2475003e+04 </wgt>
<wgt id='1863'> +9.1602807e+04 </wgt>
<wgt id='1864'> +9.2363067e+04 </wgt>
<wgt id='1865'> +9.2476315e+04 </wgt>
<wgt id='1866'> +9.2283096e+04 </wgt>
<wgt id='1867'> +9.2197689e+04 </wgt>
<wgt id='1868'> +9.2873945e+04 </wgt>
<wgt id='1869'> +9.1621711e+04 </wgt>
<wgt id='1870'> +9.2829965e+04 </wgt>
<wgt id='1871'> +9.1934344e+04 </wgt>
<wgt id='1872'> +9.2513920e+04 </wgt>
<wgt id='1873'> +9.2130443e+04 </wgt>
<wgt id='1874'> +9.2176199e+04 </wgt>
<wgt id='1875'> +9.1918465e+04 </wgt>
<wgt id='1876'> +9.1937481e+04 </wgt>
<wgt id='1877'> +9.3148840e+04 </wgt>
<wgt id='1878'> +9.1832310e+04 </wgt>
<wgt id='1879'> +9.2237072e+04 </wgt>
<wgt id='1880'> +9.2162761e+04 </wgt>
<wgt id='1881'> +9.2720414e+04 </wgt>
<wgt id='1882'> +9.2070146e+04 </wgt>
<wgt id='1883'> +9.1837464e+04 </wgt>
<wgt id='1884'> +9.2438978e+04 </wgt>
<wgt id='1885'> +9.1308530e+04 </wgt>
<wgt id='1886'> +2.8974540e+04 </wgt>
<wgt id='1887'> +4.7332167e+04 </wgt>
<wgt id='1888'> +6.4435013e+04 </wgt>
<wgt id='1889'> +7.3375833e+04 </wgt>
</rwgt>
</event>
<event npLO=" -1 " npNLO=" 0 ">
 5      0 +7.4519530e+04 2.23396150e+01 7.55820760e-03 1.24953940e-01
       -1 -1    0    0    0  501 +0.0000000000e+00 +0.0000000000e+00 +3.2562619192e-01 3.2562619192e-01 0.0000000000e+00 0.0000e+00 1.0000e+00
        2 -1    0    0  501    0 +0.0000000000e+00 +0.0000000000e+00 -3.0160935050e+03 3.0160935050e+03 0.0000000000e+00 0.0000e+00 -1.0000e+00
       24  2    1    2    0    0 +0.0000000000e+00 +0.0000000000e+00 -3.0157678788e+03 3.0164191312e+03 6.2677557148e+01 0.0000e+00 0.0000e+00
      -13  1    3    3    0    0 +1.2417510963e+01 -2.8739154693e+01 -1.4400715148e+03 1.4404117819e+03 0.0000000000e+00 0.0000e+00 1.0000e+00
       14  1    3    3    0    0 -1.2417510963e+01 +2.8739154693e+01 -1.5756963640e+03 1.5760073493e+03 0.0000000000e+00 0.0000e+00 -1.0000e+00
#aMCatNLO 1  0  0  2  1 0.10336826E+02 0.00000000E+00 -9  5  0 0.00000000E+00 0.00000000E+00 0.00000000E+00 0.00000000E+00 0.00000000E+00
<rwgt>
<wgt id='1001'> +7.4519530e+04 </wgt>
<wgt id='1002'> +6.9834773e+04 </wgt>
<wgt id='1003'> +8.0412508e+04 </wgt>
<wgt id='1004'> +9.7155150e+04 </wgt>
<wgt id='1005'> +9.0403402e+04 </wgt>
<wgt id='1006'> +1.0564832e+05 </wgt>
<wgt id='1007'> +5.3761879e+04 </wgt>
<wgt id='1008'> +5.0917856e+04 </wgt>
<wgt id='1009'> +5.7339314e+04 </wgt>
<wgt id='1010'> +7.4519530e+04 </wgt>
<wgt id='1011'> +7.4417652e+04 </wgt>
<wgt id='1012'> +7.5913497e+04 </wgt>
<wgt id='1013'> +7.3656493e+04 </wgt>
<wgt id='1014'> +7.4354488e+04 </wgt>
<wgt id='1015'> +7.4230677e+04 </wgt>
<wgt id='1016'> +7.4822385e+04 </wgt>
<wgt id='1017'> +7.4230141e+04 </wgt>
<wgt id='1018'> +7.5041172e+04 </wgt>
<wgt id='1019'> +7.3608204e+04 </wgt>
<wgt id='1020'> +7.4433660e+04 </wgt>
<wgt id='1021'> +7.4615407e+04 </wgt>
<wgt id='1022'> +7.4038099e+04 </wgt>
<wgt id='1023'> +7.5090326e+04 </wgt>
<wgt id='1024'> +7.3976224e+04 </wgt>
<wgt id='1025'> +7.4631212e+04 </wgt>
<wgt id='1026'> +7.4381664e+04 </wgt>
<wgt id='1027'> +7.4222835e+04 </wgt>
<wgt id='1028'> +7.4449600e+04 </wgt>
<wgt id='1029'> +7.4707822e+04 </wgt>
<wgt id='1030'> +7.4760198e+04 </wgt>
<wgt id='1031'> +7.4677759e+04 </wgt>
<wgt id='1032'> +7.4537794e+04 </wgt>
<wgt id='1033'> +7.4442262e+04 </wgt>
<wgt id='1034'> +7.4964042e+04 </wgt>
<wgt id='1035'> +7.5077138e+04 </wgt>
<wgt id='1036'> +7.4552664e+04 </wgt>
<wgt id='1037'> +7.4212635e+04 </wgt>
<wgt id='1038'> +7.4589907e+04 </wgt>
<wgt id='1039'> +7.5275232e+04 </wgt>
<wgt id='1040'> +7.4714604e+04 </wgt>
<wgt id='1041'> +7.4661313e+04 </wgt>
<wgt id='1042'> +7.4549226e+04 </wgt>
<wgt id='1043'> +7.4363884e+04 </wgt>
<wgt id='1044'> +7.5016326e+04 </wgt>
<wgt id='1045'> +7.4258381e+04 </wgt>
<wgt id='1046'> +7.4091182e+04 </wgt>
<wgt id='1047'> +7.4744836e+04 </wgt>
<wgt id='1048'> +7.4109307e+04 </wgt>
<wgt id='1049'> +7.4151049e+04 </wgt>
<wgt id='1050'> +7.4646437e+04 </wgt>
<wgt id='1051'> +7.4504021e+04 </wgt>
<wgt id='1052'> +7.4427305e+04 </wgt>
<wgt id='1053'> +7.4557245e+04 </wgt>
<wgt id='1054'> +7.4401838e+04 </wgt>
<wgt id='1055'> +7.4558752e+04 </wgt>
<wgt id='1056'> +7.4759161e+04 </wgt>
<wgt id='1057'> +7.4227986e+04 </wgt>
<wgt id='1058'> +7.4548984e+04 </wgt>
<wgt id='1059'> +7.4508177e+04 </wgt>
<wgt id='1060'> +7.4549424e+04 </wgt>
<wgt id='1061'> +7.4657029e+04 </wgt>
<wgt id='1062'> +7.4875779e+04 </wgt>
<wgt id='1063'> +7.4371962e+04 </wgt>
<wgt id='1064'> +7.4957524e+04 </wgt>
<wgt id='1065'> +7.4849439e+04 </wgt>
<wgt id='1066'> +7.4315281e+04 </wgt>
<wgt id='1067'> +7.4154911e+04 </wgt>
<wgt id='1068'> +7.4811627e+04 </wgt>
<wgt id='1069'> +7.4241900e+04 </wgt>
<wgt id='1070'> +7.4672199e+04 </wgt>
<wgt id='1071'> +7.4727452e+04 </wgt>
<wgt id='1072'> +7.4734786e+04 </wgt>
<wgt id='1073'> +7.4757266e+04 </wgt>
<wgt id='1074'> +7.5011013e+04 </wgt>
<wgt id='1075'> +7.4239849e+04 </wgt>
<wgt id='1076'> +7.4698830e+04 </wgt>
<wgt id='1077'> +7.4770815e+04 </wgt>
<wgt id='1078'> +7.4761565e+04 </wgt>
<wgt id='1079'> +7.4361955e+04 </wgt>
<wgt id='1080'> +7.4655329e+04 </wgt>
<wgt id='1081'> +7.4663081e+04 </wgt>
<wgt id='1082'> +7.4407366e+04 </wgt>
<wgt id='1083'> +7.4386773e+04 </wgt>
<wgt id='1084'> +7.4661705e+04 </wgt>
<wgt id='1085'> +7.4483416e+04 </wgt>
<wgt id='1086'> +7.4568665e+04 </wgt>
<wgt id='1087'> +7.4412688e+04 </wgt>
<wgt id='1088'> +7.4364958e+04 </wgt>
<wgt id='1089'> +7.4583244e+04 </wgt>
<wgt id='1090'> +7.4509735e+04 </wgt>
<wgt id='1091'> +7.4469299e+04 </wgt>
<wgt id='1092'> +7.4561215e+04 </wgt>
<wgt id='1093'> +7.4668728e+04 </wgt>
<wgt id='1094'> +7.4756908e+04 </wgt>
<wgt id='1095'> +7.4513645e+04 </wgt>
<wgt id='1096'> +7.4572738e+04 </wgt>
<wgt id='1097'> +7.4497166e+04 </wgt>
<wgt id='1098'> +7.4449113e+04 </wgt>
<wgt id='1099'> +7.4303933e+04 </wgt>
<wgt id='1100'> +7.4608265e+04 </wgt>
<wgt id='1101'> +7.4615313e+04 </wgt>
<wgt id='1102'> +7.4549465e+04 </wgt>
<wgt id='1103'> +7.4443412e+04 </wgt>
<wgt id='1104'> +7.4596864e+04 </wgt>
<wgt id='1105'> +7.4505563e+04 </wgt>
<wgt id='1106'> +7.4518968e+04 </wgt>
<wgt id='1107'> +7.4556590e+04 </wgt>
<wgt id='1108'> +7.4523618e+04 </wgt>
<wgt id='1109'> +7.4463206e+04 </wgt>
<wgt id='1110'> +7.4519524e+04 </wgt>
<wgt id='1111'> +7.2449028e+04 </wgt>
<wgt id='1112'> +7.5779844e+04 </wgt>
<wgt id='1113'> +7.4519524e+04 </wgt>
<wgt id='1114'> +7.2487095e+04 </wgt>
<wgt id='1115'> +7.7586633e+04 </wgt>
<wgt id='1116'> +7.3656469e+04 </wgt>
<wgt id='1117'> +7.8758289e+04 </wgt>
<wgt id='1118'> +7.8836729e+04 </wgt>
<wgt id='1119'> +7.1292982e+04 </wgt>
<wgt id='1120'> +7.5612170e+04 </wgt>
<wgt id='1121'> +7.4335782e+04 </wgt>
<wgt id='1122'> +7.0414098e+04 </wgt>
<wgt id='1123'> +7.2978647e+04 </wgt>
<wgt id='1124'> +7.5587638e+04 </wgt>
<wgt id='1125'> +7.4036833e+04 </wgt>
<wgt id='1126'> +7.3240871e+04 </wgt>
<wgt id='1127'> +7.1206319e+04 </wgt>
<wgt id='1128'> +7.3852703e+04 </wgt>
<wgt id='1129'> +7.2191201e+04 </wgt>
<wgt id='1130'> +7.3905756e+04 </wgt>
<wgt id='1131'> +7.5116043e+04 </wgt>
<wgt id='1132'> +7.6568864e+04 </wgt>
<wgt id='1133'> +7.7012023e+04 </wgt>
<wgt id='1134'> +8.0303255e+04 </wgt>
<wgt id='1135'> +7.9626084e+04 </wgt>
<wgt id='1136'> +7.9008401e+04 </wgt>
<wgt id='1137'> +7.5411236e+04 </wgt>
<wgt id='1138'> +7.4070021e+04 </wgt>
<wgt id='1139'> +7.1980406e+04 </wgt>
<wgt id='1140'> +7.5693946e+04 </wgt>
<wgt id='1141'> +7.5870027e+04 </wgt>
<wgt id='1142'> +7.2890773e+04 </wgt>
<wgt id='1143'> +7.6863670e+04 </wgt>
<wgt id='1144'> +7.3370288e+04 </wgt>
<wgt id='1145'> +7.5158267e+04 </wgt>
<wgt id='1146'> +7.5554868e+04 </wgt>
<wgt id='1147'> +7.7202816e+04 </wgt>
<wgt id='1148'> +7.1573336e+04 </wgt>
<wgt id='1149'> +7.7480376e+04 </wgt>
<wgt id='1150'> +7.4760528e+04 </wgt>
<wgt id='1151'> +7.3967980e+04 </wgt>
<wgt id='1152'> +7.5326742e+04 </wgt>
<wgt id='1153'> +7.1061477e+04 </wgt>
<wgt id='1154'> +7.3600826e+04 </wgt>
<wgt id='1155'> +7.2730566e+04 </wgt>
<wgt id='1156'> +7.5071588e+04 </wgt>
<wgt id='1157'> +7.4776042e+04 </wgt>
<wgt id='1158'> +6.9867507e+04 </wgt>
<wgt id='1159'> +7.3813972e+04 </wgt>
<wgt id='1160'> +7.9752034e+04 </wgt>
<wgt id='1161'> +6.8392074e+04 </wgt>
<wgt id='1162'> +7.5406765e+04 </wgt>
<wgt id='1163'> +6.8710217e+04 </wgt>
<wgt id='1164'> +7.4709129e+04 </wgt>
<wgt id='1165'> +7.6373464e+04 </wgt>
<wgt id='1166'> +7.5934547e+04 </wgt>
<wgt id='1167'> +7.6789929e+04 </wgt>
<wgt id='1168'> +7.5369016e+04 </wgt>
<wgt id='1169'> +6.7524318e+04 </wgt>
<wgt id='1170'> +7.4566068e+04 </wgt>
<wgt id='1171'> +7.5465689e+04 </wgt>
<wgt id='1172'> +7.1749029e+04 </wgt>
<wgt id='1173'> +7.1691104e+04 </wgt>
<wgt id='1174'> +7.2718205e+04 </wgt>
<wgt id='1175'> +7.6991827e+04 </wgt>
<wgt id='1176'> +7.8000158e+04 </wgt>
<wgt id='1177'> +7.0208187e+04 </wgt>
<wgt id='1178'> +7.8431985e+04 </wgt>
<wgt id='1179'> +6.9247885e+04 </wgt>
<wgt id='1180'> +7.5750509e+04 </wgt>
<wgt id='1181'> +7.6164404e+04 </wgt>
<wgt id='1182'> +7.3771488e+04 </wgt>
<wgt id='1183'> +7.9954816e+04 </wgt>
<wgt id='1184'> +7.6159258e+04 </wgt>
<wgt id='1185'> +6.8281049e+04 </wgt>
<wgt id='1186'> +7.2105410e+04 </wgt>
<wgt id='1187'> +7.8659452e+04 </wgt>
<wgt id='1188'> +7.2650991e+04 </wgt>
<wgt id='1189'> +7.9860761e+04 </wgt>
<wgt id='1190'> +7.7958012e+04 </wgt>
<wgt id='1191'> +7.8809444e+04 </wgt>
<wgt id='1192'> +7.0353121e+04 </wgt>
<wgt id='1193'> +7.3832542e+04 </wgt>
<wgt id='1194'> +7.2996486e+04 </wgt>
<wgt id='1195'> +7.2191201e+04 </wgt>
<wgt id='1196'> +7.2545866e+04 </wgt>
<wgt id='1197'> +7.6464735e+04 </wgt>
<wgt id='1198'> +7.8630245e+04 </wgt>
<wgt id='1199'> +7.0592923e+04 </wgt>
<wgt id='1200'> +7.3329005e+04 </wgt>
<wgt id='1201'> +7.7441971e+04 </wgt>
<wgt id='1202'> +7.2541965e+04 </wgt>
<wgt id='1203'> +7.5520784e+04 </wgt>
<wgt id='1204'> +7.7246518e+04 </wgt>
<wgt id='1205'> +7.8236845e+04 </wgt>
<wgt id='1206'> +7.2596175e+04 </wgt>
<wgt id='1207'> +7.4118084e+04 </wgt>
<wgt id='1208'> +7.3445592e+04 </wgt>
<wgt id='1209'> +7.8057374e+04 </wgt>
<wgt id='1210'> +6.4899150e+04 </wgt>
<wgt id='1211'> +7.5559039e+04 </wgt>
<wgt id='1212'> +7.3227244e+04 </wgt>
<wgt id='1213'> +7.2812837e+04 </wgt>
<wgt id='1214'> +7.4565885e+04 </wgt>
<wgt id='1215'> +6.5832758e+04 </wgt>
<wgt id='1216'> +6.7640528e+04 </wgt>
<wgt id='1217'> +6.9441615e+04 </wgt>
<wgt id='1218'> +7.1627006e+04 </wgt>
<wgt id='1219'> +7.3733931e+04 </wgt>
<wgt id='1220'> +7.5293011e+04 </wgt>
<wgt id='1221'> +7.8507467e+04 </wgt>
<wgt id='1222'> +7.9962622e+04 </wgt>
<wgt id='1223'> +7.2001739e+04 </wgt>
<wgt id='1224'> +7.0194233e+04 </wgt>
<wgt id='1225'> +7.3763659e+04 </wgt>
<wgt id='1226'> +7.2040307e+04 </wgt>
<wgt id='1227'> +7.2040066e+04 </wgt>
<wgt id='1228'> +7.2744911e+04 </wgt>
<wgt id='1229'> +7.1250921e+04 </wgt>
<wgt id='1230'> +7.2442482e+04 </wgt>
<wgt id='1231'> +7.3206886e+04 </wgt>
<wgt id='1232'> +7.1996617e+04 </wgt>
<wgt id='1233'> +7.2025744e+04 </wgt>
<wgt id='1234'> +7.1938129e+04 </wgt>
<wgt id='1235'> +7.2341622e+04 </wgt>
<wgt id='1236'> +7.2428749e+04 </wgt>
<wgt id='1237'> +7.1641379e+04 </wgt>
<wgt id='1238'> +7.2238803e+04 </wgt>
<wgt id='1239'> +7.2184406e+04 </wgt>
<wgt id='1240'> +7.1970893e+04 </wgt>
<wgt id='1241'> +7.1918544e+04 </wgt>
<wgt id='1242'> +7.1890515e+04 </wgt>
<wgt id='1243'> +7.1627767e+04 </wgt>
<wgt id='1244'> +7.2038329e+04 </wgt>
<wgt id='1245'> +7.1966272e+04 </wgt>
<wgt id='1246'> +7.2243927e+04 </wgt>
<wgt id='1247'> +7.1812505e+04 </wgt>
<wgt id='1248'> +7.1835478e+04 </wgt>
<wgt id='1249'> +7.2031089e+04 </wgt>
<wgt id='1250'> +7.1870005e+04 </wgt>
<wgt id='1251'> +7.2360702e+04 </wgt>
<wgt id='1252'> +7.2429506e+04 </wgt>
<wgt id='1253'> +7.1493614e+04 </wgt>
<wgt id='1254'> +7.1520953e+04 </wgt>
<wgt id='1255'> +7.2033860e+04 </wgt>
<wgt id='1256'> +7.1969222e+04 </wgt>
<wgt id='1257'> +7.1985807e+04 </wgt>
<wgt id='1258'> +7.1869330e+04 </wgt>
<wgt id='1259'> +7.2114310e+04 </wgt>
<wgt id='1260'> +7.1532130e+04 </wgt>
<wgt id='1261'> +7.2106752e+04 </wgt>
<wgt id='1262'> +7.2017395e+04 </wgt>
<wgt id='1263'> +7.2118230e+04 </wgt>
<wgt id='1264'> +7.2218185e+04 </wgt>
<wgt id='1265'> +7.1975999e+04 </wgt>
<wgt id='1266'> +7.1927279e+04 </wgt>
<wgt id='1267'> +7.1959429e+04 </wgt>
<wgt id='1268'> +7.1948694e+04 </wgt>
<wgt id='1269'> +7.1985056e+04 </wgt>
<wgt id='1270'> +7.1932200e+04 </wgt>
<wgt id='1271'> +7.1907743e+04 </wgt>
<wgt id='1272'> +7.2051191e+04 </wgt>
<wgt id='1273'> +7.1778470e+04 </wgt>
<wgt id='1274'> +7.2361128e+04 </wgt>
<wgt id='1275'> +7.2295493e+04 </wgt>
<wgt id='1276'> +7.1760383e+04 </wgt>
<wgt id='1277'> +7.2019193e+04 </wgt>
<wgt id='1278'> +7.1689448e+04 </wgt>
<wgt id='1279'> +7.2479634e+04 </wgt>
<wgt id='1280'> +7.1753262e+04 </wgt>
<wgt id='1281'> +7.2085488e+04 </wgt>
<wgt id='1282'> +7.2947255e+04 </wgt>
<wgt id='1283'> +7.1762861e+04 </wgt>
<wgt id='1284'> +7.1775324e+04 </wgt>
<wgt id='1285'> +7.2061691e+04 </wgt>
<wgt id='1286'> +7.1612508e+04 </wgt>
<wgt id='1287'> +7.1843152e+04 </wgt>
<wgt id='1288'> +7.1957465e+04 </wgt>
<wgt id='1289'> +7.2066534e+04 </wgt>
<wgt id='1290'> +7.2353957e+04 </wgt>
<wgt id='1291'> +7.1977076e+04 </wgt>
<wgt id='1292'> +7.1709200e+04 </wgt>
<wgt id='1293'> +7.2230015e+04 </wgt>
<wgt id='1294'> +7.2042834e+04 </wgt>
<wgt id='1295'> +7.1977836e+04 </wgt>
<wgt id='1296'> +7.1985436e+04 </wgt>
<wgt id='1297'> +7.1892400e+04 </wgt>
<wgt id='1298'> +7.1882073e+04 </wgt>
<wgt id='1299'> +7.2160499e+04 </wgt>
<wgt id='1300'> +7.2295884e+04 </wgt>
<wgt id='1301'> +7.2218655e+04 </wgt>
<wgt id='1302'> +7.1713610e+04 </wgt>
<wgt id='1303'> +7.1810149e+04 </wgt>
<wgt id='1304'> +7.2064679e+04 </wgt>
<wgt id='1305'> +7.1718637e+04 </wgt>
<wgt id='1306'> +7.1730750e+04 </wgt>
<wgt id='1307'> +7.1776605e+04 </wgt>
<wgt id='1308'> +7.1955829e+04 </wgt>
<wgt id='1309'> +7.2227152e+04 </wgt>
<wgt id='1310'> +7.2229970e+04 </wgt>
<wgt id='1311'> +7.2159499e+04 </wgt>
<wgt id='1312'> +7.2132160e+04 </wgt>
<wgt id='1313'> +7.2142281e+04 </wgt>
<wgt id='1314'> +7.1918763e+04 </wgt>
<wgt id='1315'> +7.2444136e+04 </wgt>
<wgt id='1316'> +7.2008163e+04 </wgt>
<wgt id='1317'> +7.1847329e+04 </wgt>
<wgt id='1318'> +7.1865578e+04 </wgt>
<wgt id='1319'> +7.2266258e+04 </wgt>
<wgt id='1320'> +7.1881518e+04 </wgt>
<wgt id='1321'> +7.1737596e+04 </wgt>
<wgt id='1322'> +7.1924937e+04 </wgt>
<wgt id='1323'> +7.2073404e+04 </wgt>
<wgt id='1324'> +6.9721962e+04 </wgt>
<wgt id='1325'> +7.3309106e+04 </wgt>
<wgt id='1326'> +7.5679202e+04 </wgt>
<wgt id='1327'> +7.6107131e+04 </wgt>
<wgt id='1328'> +7.3828720e+04 </wgt>
<wgt id='1329'> +7.4985487e+04 </wgt>
<wgt id='1330'> +7.4410488e+04 </wgt>
<wgt id='1331'> +7.3774744e+04 </wgt>
<wgt id='1332'> +7.5540311e+04 </wgt>
<wgt id='1333'> +7.5510441e+04 </wgt>
<wgt id='1334'> +7.2219128e+04 </wgt>
<wgt id='1335'> +7.1390288e+04 </wgt>
<wgt id='1336'> +7.4508296e+04 </wgt>
<wgt id='1337'> +7.4051104e+04 </wgt>
<wgt id='1338'> +7.2462009e+04 </wgt>
<wgt id='1339'> +7.3977526e+04 </wgt>
<wgt id='1340'> +7.3759041e+04 </wgt>
<wgt id='1341'> +7.2674935e+04 </wgt>
<wgt id='1342'> +7.5253039e+04 </wgt>
<wgt id='1343'> +7.3550585e+04 </wgt>
<wgt id='1344'> +7.0758417e+04 </wgt>
<wgt id='1345'> +7.5257376e+04 </wgt>
<wgt id='1346'> +7.3645610e+04 </wgt>
<wgt id='1347'> +7.5283595e+04 </wgt>
<wgt id='1348'> +7.4683989e+04 </wgt>
<wgt id='1349'> +7.5020256e+04 </wgt>
<wgt id='1350'> +7.0954181e+04 </wgt>
<wgt id='1351'> +7.2987658e+04 </wgt>
<wgt id='1352'> +7.2608743e+04 </wgt>
<wgt id='1353'> +7.2752098e+04 </wgt>
<wgt id='1354'> +7.5135080e+04 </wgt>
<wgt id='1355'> +7.4761476e+04 </wgt>
<wgt id='1356'> +7.2939124e+04 </wgt>
<wgt id='1357'> +7.3883876e+04 </wgt>
<wgt id='1358'> +7.2637762e+04 </wgt>
<wgt id='1359'> +7.5538609e+04 </wgt>
<wgt id='1360'> +7.2050549e+04 </wgt>
<wgt id='1361'> +7.7257634e+04 </wgt>
<wgt id='1362'> +7.5529505e+04 </wgt>
<wgt id='1363'> +7.2565892e+04 </wgt>
<wgt id='1364'> +7.4687957e+04 </wgt>
<wgt id='1365'> +7.1196597e+04 </wgt>
<wgt id='1366'> +7.2440073e+04 </wgt>
<wgt id='1367'> +7.3269976e+04 </wgt>
<wgt id='1368'> +7.4937051e+04 </wgt>
<wgt id='1369'> +7.1688020e+04 </wgt>
<wgt id='1370'> +7.5422100e+04 </wgt>
<wgt id='1371'> +7.1436312e+04 </wgt>
<wgt id='1372'> +7.0856117e+04 </wgt>
<wgt id='1373'> +7.2238720e+04 </wgt>
<wgt id='1374'> +7.4865641e+04 </wgt>
<wgt id='1375'> +7.3503783e+04 </wgt>
<wgt id='1376'> +7.5541768e+04 </wgt>
<wgt id='1377'> +7.1846908e+04 </wgt>
<wgt id='1378'> +7.2524386e+04 </wgt>
<wgt id='1379'> +7.7461528e+04 </wgt>
<wgt id='1380'> +7.1770381e+04 </wgt>
<wgt id='1381'> +7.5497607e+04 </wgt>
<wgt id='1382'> +7.2697821e+04 </wgt>
<wgt id='1383'> +7.6289028e+04 </wgt>
<wgt id='1384'> +7.3842987e+04 </wgt>
<wgt id='1385'> +7.1320579e+04 </wgt>
<wgt id='1386'> +7.5273901e+04 </wgt>
<wgt id='1387'> +7.4833567e+04 </wgt>
<wgt id='1388'> +7.5780124e+04 </wgt>
<wgt id='1389'> +7.4461640e+04 </wgt>
<wgt id='1390'> +7.0481188e+04 </wgt>
<wgt id='1391'> +7.4075058e+04 </wgt>
<wgt id='1392'> +7.3767036e+04 </wgt>
<wgt id='1393'> +7.2543838e+04 </wgt>
<wgt id='1394'> +7.1196597e+04 </wgt>
<wgt id='1395'> +7.3441919e+04 </wgt>
<wgt id='1396'> +7.2580585e+04 </wgt>
<wgt id='1397'> +7.4669060e+04 </wgt>
<wgt id='1398'> +7.2597083e+04 </wgt>
<wgt id='1399'> +7.5092575e+04 </wgt>
<wgt id='1400'> +7.7234508e+04 </wgt>
<wgt id='1401'> +7.4701019e+04 </wgt>
<wgt id='1402'> +7.5405061e+04 </wgt>
<wgt id='1403'> +7.2749677e+04 </wgt>
<wgt id='1404'> +7.6478470e+04 </wgt>
<wgt id='1405'> +7.0710741e+04 </wgt>
<wgt id='1406'> +7.2860519e+04 </wgt>
<wgt id='1407'> +7.3771358e+04 </wgt>
<wgt id='1408'> +7.6918925e+04 </wgt>
<wgt id='1409'> +7.3024701e+04 </wgt>
<wgt id='1410'> +7.5705071e+04 </wgt>
<wgt id='1411'> +7.5375232e+04 </wgt>
<wgt id='1412'> +7.6763101e+04 </wgt>
<wgt id='1413'> +7.2855614e+04 </wgt>
<wgt id='1414'> +7.5177262e+04 </wgt>
<wgt id='1415'> +7.3335259e+04 </wgt>
<wgt id='1416'> +7.5112139e+04 </wgt>
<wgt id='1417'> +7.3030325e+04 </wgt>
<wgt id='1418'> +7.3275951e+04 </wgt>
<wgt id='1419'> +7.6547127e+04 </wgt>
<wgt id='1420'> +7.1968701e+04 </wgt>
<wgt id='1421'> +7.4371680e+04 </wgt>
<wgt id='1422'> +7.2167812e+04 </wgt>
<wgt id='1423'> +7.3128720e+04 </wgt>
<wgt id='1424'> +7.4809249e+04 </wgt>
<wgt id='1425'> +6.9966366e+04 </wgt>
<wgt id='1426'> +7.4578710e+04 </wgt>
<wgt id='1427'> +7.5708581e+04 </wgt>
<wgt id='1428'> +7.4348308e+04 </wgt>
<wgt id='1429'> +7.3197308e+04 </wgt>
<wgt id='1430'> +7.4246257e+04 </wgt>
<wgt id='1431'> +7.3805734e+04 </wgt>
<wgt id='1432'> +7.5053123e+04 </wgt>
<wgt id='1433'> +7.3575320e+04 </wgt>
<wgt id='1434'> +7.3433779e+04 </wgt>
<wgt id='1435'> +7.3723760e+04 </wgt>
<wgt id='1436'> +7.3759390e+04 </wgt>
<wgt id='1437'> +7.3760483e+04 </wgt>
<wgt id='1438'> +7.3830343e+04 </wgt>
<wgt id='1439'> +7.3575164e+04 </wgt>
<wgt id='1440'> +7.3914987e+04 </wgt>
<wgt id='1441'> +7.3825630e+04 </wgt>
<wgt id='1442'> +7.3961006e+04 </wgt>
<wgt id='1443'> +7.3846596e+04 </wgt>
<wgt id='1444'> +7.3571790e+04 </wgt>
<wgt id='1445'> +7.3704851e+04 </wgt>
<wgt id='1446'> +7.3926469e+04 </wgt>
<wgt id='1447'> +7.3544946e+04 </wgt>
<wgt id='1448'> +7.3927200e+04 </wgt>
<wgt id='1449'> +7.3664288e+04 </wgt>
<wgt id='1450'> +7.3322284e+04 </wgt>
<wgt id='1451'> +7.3924462e+04 </wgt>
<wgt id='1452'> +7.4035861e+04 </wgt>
<wgt id='1453'> +7.3740767e+04 </wgt>
<wgt id='1454'> +7.3750938e+04 </wgt>
<wgt id='1455'> +7.4108689e+04 </wgt>
<wgt id='1456'> +7.3426796e+04 </wgt>
<wgt id='1457'> +7.3938723e+04 </wgt>
<wgt id='1458'> +7.4178247e+04 </wgt>
<wgt id='1459'> +7.3919526e+04 </wgt>
<wgt id='1460'> +7.3838036e+04 </wgt>
<wgt id='1461'> +7.3975339e+04 </wgt>
<wgt id='1462'> +7.3649058e+04 </wgt>
<wgt id='1463'> +7.3923553e+04 </wgt>
<wgt id='1464'> +7.4018633e+04 </wgt>
<wgt id='1465'> +7.3914548e+04 </wgt>
<wgt id='1466'> +7.3691892e+04 </wgt>
<wgt id='1467'> +7.4084290e+04 </wgt>
<wgt id='1468'> +7.4009188e+04 </wgt>
<wgt id='1469'> +7.3751128e+04 </wgt>
<wgt id='1470'> +7.3627928e+04 </wgt>
<wgt id='1471'> +7.3825756e+04 </wgt>
<wgt id='1472'> +7.3772303e+04 </wgt>
<wgt id='1473'> +7.3732406e+04 </wgt>
<wgt id='1474'> +7.3977213e+04 </wgt>
<wgt id='1475'> +7.3868987e+04 </wgt>
<wgt id='1476'> +7.3858704e+04 </wgt>
<wgt id='1477'> +7.3871622e+04 </wgt>
<wgt id='1478'> +7.3861960e+04 </wgt>
<wgt id='1479'> +7.3822583e+04 </wgt>
<wgt id='1480'> +7.3796508e+04 </wgt>
<wgt id='1481'> +7.3874685e+04 </wgt>
<wgt id='1482'> +7.3197308e+04 </wgt>
<wgt id='1483'> +7.4246257e+04 </wgt>
<wgt id='1484'> +8.1428592e+04 </wgt>
<wgt id='1485'> +8.0945170e+04 </wgt>
<wgt id='1486'> +8.2444798e+04 </wgt>
<wgt id='1487'> +7.8214637e+04 </wgt>
<wgt id='1488'> +7.9526312e+04 </wgt>
<wgt id='1489'> +8.2868942e+04 </wgt>
<wgt id='1490'> +7.6486445e+04 </wgt>
<wgt id='1491'> +8.0116527e+04 </wgt>
<wgt id='1492'> +7.7422892e+04 </wgt>
<wgt id='1493'> +8.2958963e+04 </wgt>
<wgt id='1494'> +8.0263924e+04 </wgt>
<wgt id='1495'> +7.8109316e+04 </wgt>
<wgt id='1496'> +8.0976265e+04 </wgt>
<wgt id='1497'> +8.2078962e+04 </wgt>
<wgt id='1498'> +8.2822919e+04 </wgt>
<wgt id='1499'> +8.3220279e+04 </wgt>
<wgt id='1500'> +8.0274984e+04 </wgt>
<wgt id='1501'> +8.0364714e+04 </wgt>
<wgt id='1502'> +8.1421814e+04 </wgt>
<wgt id='1503'> +7.9832761e+04 </wgt>
<wgt id='1504'> +8.1520657e+04 </wgt>
<wgt id='1505'> +8.1765221e+04 </wgt>
<wgt id='1506'> +8.2220543e+04 </wgt>
<wgt id='1507'> +8.0774720e+04 </wgt>
<wgt id='1508'> +7.6533928e+04 </wgt>
<wgt id='1509'> +8.1662398e+04 </wgt>
<wgt id='1510'> +8.3241390e+04 </wgt>
<wgt id='1511'> +8.0881275e+04 </wgt>
<wgt id='1512'> +8.0183757e+04 </wgt>
<wgt id='1513'> +8.1601722e+04 </wgt>
<wgt id='1514'> +8.0507048e+04 </wgt>
<wgt id='1515'> +8.0635087e+04 </wgt>
<wgt id='1516'> +7.8930806e+04 </wgt>
<wgt id='1517'> +8.1738436e+04 </wgt>
<wgt id='1518'> +8.0791270e+04 </wgt>
<wgt id='1519'> +8.1664353e+04 </wgt>
<wgt id='1520'> +8.2128013e+04 </wgt>
<wgt id='1521'> +7.7949323e+04 </wgt>
<wgt id='1522'> +8.2525337e+04 </wgt>
<wgt id='1523'> +8.1962509e+04 </wgt>
<wgt id='1524'> +8.0385977e+04 </wgt>
<wgt id='1525'> +8.2123224e+04 </wgt>
<wgt id='1526'> +8.2907962e+04 </wgt>
<wgt id='1527'> +8.1604010e+04 </wgt>
<wgt id='1528'> +8.3673953e+04 </wgt>
<wgt id='1529'> +8.2066606e+04 </wgt>
<wgt id='1530'> +8.3099322e+04 </wgt>
<wgt id='1531'> +8.1222493e+04 </wgt>
<wgt id='1532'> +7.5981652e+04 </wgt>
<wgt id='1533'> +8.2123047e+04 </wgt>
<wgt id='1534'> +8.2005437e+04 </wgt>
<wgt id='1535'> +7.9762696e+04 </wgt>
<wgt id='1536'> +8.1727039e+04 </wgt>
<wgt id='1537'> +8.1546164e+04 </wgt>
<wgt id='1538'> +8.3457268e+04 </wgt>
<wgt id='1539'> +8.1740947e+04 </wgt>
<wgt id='1540'> +8.4352126e+04 </wgt>
<wgt id='1541'> +8.3536216e+04 </wgt>
<wgt id='1542'> +8.3106843e+04 </wgt>
<wgt id='1543'> +8.2791985e+04 </wgt>
<wgt id='1544'> +8.3640582e+04 </wgt>
<wgt id='1545'> +8.2231738e+04 </wgt>
<wgt id='1546'> +8.2642146e+04 </wgt>
<wgt id='1547'> +8.2940465e+04 </wgt>
<wgt id='1548'> +8.0865562e+04 </wgt>
<wgt id='1549'> +8.4174726e+04 </wgt>
<wgt id='1550'> +8.3470139e+04 </wgt>
<wgt id='1551'> +8.4154836e+04 </wgt>
<wgt id='1552'> +8.0845596e+04 </wgt>
<wgt id='1553'> +8.4243004e+04 </wgt>
<wgt id='1554'> +8.0948594e+04 </wgt>
<wgt id='1555'> +8.1159357e+04 </wgt>
<wgt id='1556'> +8.1755621e+04 </wgt>
<wgt id='1557'> +8.1100987e+04 </wgt>
<wgt id='1558'> +8.2000581e+04 </wgt>
<wgt id='1559'> +8.1951281e+04 </wgt>
<wgt id='1560'> +8.0779715e+04 </wgt>
<wgt id='1561'> +8.3665626e+04 </wgt>
<wgt id='1562'> +8.1814488e+04 </wgt>
<wgt id='1563'> +8.0591689e+04 </wgt>
<wgt id='1564'> +8.0833684e+04 </wgt>
<wgt id='1565'> +7.9125952e+04 </wgt>
<wgt id='1566'> +8.2422509e+04 </wgt>
<wgt id='1567'> +8.3590683e+04 </wgt>
<wgt id='1568'> +8.1009816e+04 </wgt>
<wgt id='1569'> +8.3623664e+04 </wgt>
<wgt id='1570'> +8.3932657e+04 </wgt>
<wgt id='1571'> +8.2546524e+04 </wgt>
<wgt id='1572'> +8.0526829e+04 </wgt>
<wgt id='1573'> +8.3931997e+04 </wgt>
<wgt id='1574'> +8.2614932e+04 </wgt>
<wgt id='1575'> +7.6615860e+04 </wgt>
<wgt id='1576'> +8.2473358e+04 </wgt>
<wgt id='1577'> +7.7689334e+04 </wgt>
<wgt id='1578'> +8.0546023e+04 </wgt>
<wgt id='1579'> +8.0926382e+04 </wgt>
<wgt id='1580'> +8.4304114e+04 </wgt>
<wgt id='1581'> +8.2805381e+04 </wgt>
<wgt id='1582'> +7.9275614e+04 </wgt>
<wgt id='1583'> +8.0927590e+04 </wgt>
<wgt id='1584'> +7.9622002e+04 </wgt>
<wgt id='1585'> +7.7694454e+04 </wgt>
<wgt id='1586'> +7.1884992e+04 </wgt>
<wgt id='1587'> +7.2177404e+04 </wgt>
<wgt id='1588'> +7.3197308e+04 </wgt>
<wgt id='1589'> +7.3584446e+04 </wgt>
<wgt id='1590'> +7.3695035e+04 </wgt>
<wgt id='1591'> +7.4246257e+04 </wgt>
<wgt id='1592'> +7.4668698e+04 </wgt>
<wgt id='1593'> +7.8436020e+04 </wgt>
<wgt id='1594'> +7.8380713e+04 </wgt>
<wgt id='1595'> +7.8621376e+04 </wgt>
<wgt id='1596'> +7.9608938e+04 </wgt>
<wgt id='1597'> +7.6792649e+04 </wgt>
<wgt id='1598'> +7.7847731e+04 </wgt>
<wgt id='1599'> +7.8900678e+04 </wgt>
<wgt id='1600'> +7.8048429e+04 </wgt>
<wgt id='1601'> +7.8784451e+04 </wgt>
<wgt id='1602'> +7.8369501e+04 </wgt>
<wgt id='1603'> +7.8731409e+04 </wgt>
<wgt id='1604'> +7.8421070e+04 </wgt>
<wgt id='1605'> +7.8761928e+04 </wgt>
<wgt id='1606'> +7.7543787e+04 </wgt>
<wgt id='1607'> +7.8841795e+04 </wgt>
<wgt id='1608'> +7.7729694e+04 </wgt>
<wgt id='1609'> +7.8719286e+04 </wgt>
<wgt id='1610'> +7.8230263e+04 </wgt>
<wgt id='1611'> +7.8520513e+04 </wgt>
<wgt id='1612'> +7.9031829e+04 </wgt>
<wgt id='1613'> +7.7345439e+04 </wgt>
<wgt id='1614'> +7.8235275e+04 </wgt>
<wgt id='1615'> +7.8816126e+04 </wgt>
<wgt id='1616'> +7.8148994e+04 </wgt>
<wgt id='1617'> +7.8169116e+04 </wgt>
<wgt id='1618'> +7.8394849e+04 </wgt>
<wgt id='1619'> +7.8576827e+04 </wgt>
<wgt id='1620'> +7.9206154e+04 </wgt>
<wgt id='1621'> +7.7993423e+04 </wgt>
<wgt id='1622'> +8.0188305e+04 </wgt>
<wgt id='1623'> +7.7030167e+04 </wgt>
<wgt id='1624'> +7.8777855e+04 </wgt>
<wgt id='1625'> +7.6929499e+04 </wgt>
<wgt id='1626'> +7.7711962e+04 </wgt>
<wgt id='1627'> +7.9091788e+04 </wgt>
<wgt id='1628'> +7.7877975e+04 </wgt>
<wgt id='1629'> +7.9520895e+04 </wgt>
<wgt id='1630'> +7.8255347e+04 </wgt>
<wgt id='1631'> +7.8396665e+04 </wgt>
<wgt id='1632'> +7.7701329e+04 </wgt>
<wgt id='1633'> +7.9424911e+04 </wgt>
<wgt id='1634'> +7.9297917e+04 </wgt>
<wgt id='1635'> +7.7905797e+04 </wgt>
<wgt id='1636'> +7.9043026e+04 </wgt>
<wgt id='1637'> +7.9148995e+04 </wgt>
<wgt id='1638'> +7.8463465e+04 </wgt>
<wgt id='1639'> +7.8472142e+04 </wgt>
<wgt id='1640'> +7.9719582e+04 </wgt>
<wgt id='1641'> +7.7604892e+04 </wgt>
<wgt id='1642'> +7.8721961e+04 </wgt>
<wgt id='1643'> +7.8462195e+04 </wgt>
<wgt id='1644'> +7.9178635e+04 </wgt>
<wgt id='1645'> +7.7753584e+04 </wgt>
<wgt id='1646'> +7.7988964e+04 </wgt>
<wgt id='1647'> +8.0031108e+04 </wgt>
<wgt id='1648'> +7.8784781e+04 </wgt>
<wgt id='1649'> +7.9329078e+04 </wgt>
<wgt id='1650'> +8.2399717e+04 </wgt>
<wgt id='1651'> +7.6042533e+04 </wgt>
<wgt id='1652'> +7.8176973e+04 </wgt>
<wgt id='1653'> +7.8308084e+04 </wgt>
<wgt id='1654'> +7.8552861e+04 </wgt>
<wgt id='1655'> +7.8680108e+04 </wgt>
<wgt id='1656'> +7.9677429e+04 </wgt>
<wgt id='1657'> +7.9631196e+04 </wgt>
<wgt id='1658'> +7.9576833e+04 </wgt>
<wgt id='1659'> +8.0319265e+04 </wgt>
<wgt id='1660'> +7.9001579e+04 </wgt>
<wgt id='1661'> +8.0114412e+04 </wgt>
<wgt id='1662'> +7.9117839e+04 </wgt>
<wgt id='1663'> +8.0123657e+04 </wgt>
<wgt id='1664'> +7.8901728e+04 </wgt>
<wgt id='1665'> +7.9984240e+04 </wgt>
<wgt id='1666'> +7.9330229e+04 </wgt>
<wgt id='1667'> +7.9230422e+04 </wgt>
<wgt id='1668'> +7.9975365e+04 </wgt>
<wgt id='1669'> +8.0164607e+04 </wgt>
<wgt id='1670'> +7.8892308e+04 </wgt>
<wgt id='1671'> +7.9166965e+04 </wgt>
<wgt id='1672'> +8.0521586e+04 </wgt>
<wgt id='1673'> +8.0194321e+04 </wgt>
<wgt id='1674'> +7.9414583e+04 </wgt>
<wgt id='1675'> +8.0677493e+04 </wgt>
<wgt id='1676'> +7.9041596e+04 </wgt>
<wgt id='1677'> +7.9471319e+04 </wgt>
<wgt id='1678'> +7.9916531e+04 </wgt>
<wgt id='1679'> +7.9196841e+04 </wgt>
<wgt id='1680'> +8.1258240e+04 </wgt>
<wgt id='1681'> +7.9703125e+04 </wgt>
<wgt id='1682'> +7.9331310e+04 </wgt>
<wgt id='1683'> +7.9832531e+04 </wgt>
<wgt id='1684'> +7.9770324e+04 </wgt>
<wgt id='1685'> +8.1484858e+04 </wgt>
<wgt id='1686'> +7.8061255e+04 </wgt>
<wgt id='1687'> +7.9606561e+04 </wgt>
<wgt id='1688'> +7.9849442e+04 </wgt>
<wgt id='1689'> +7.8474240e+04 </wgt>
<wgt id='1690'> +8.1399827e+04 </wgt>
<wgt id='1691'> +7.9387021e+04 </wgt>
<wgt id='1692'> +8.0284725e+04 </wgt>
<wgt id='1693'> +8.0066522e+04 </wgt>
<wgt id='1694'> +8.0237744e+04 </wgt>
<wgt id='1695'> +7.9283336e+04 </wgt>
<wgt id='1696'> +8.1362433e+04 </wgt>
<wgt id='1697'> +8.0701267e+04 </wgt>
<wgt id='1698'> +7.8837151e+04 </wgt>
<wgt id='1699'> +8.0208280e+04 </wgt>
<wgt id='1700'> +7.8803954e+04 </wgt>
<wgt id='1701'> +7.9470582e+04 </wgt>
<wgt id='1702'> +8.0269448e+04 </wgt>
<wgt id='1703'> +7.9516294e+04 </wgt>
<wgt id='1704'> +8.0329827e+04 </wgt>
<wgt id='1705'> +7.9145449e+04 </wgt>
<wgt id='1706'> +8.0603368e+04 </wgt>
<wgt id='1707'> +7.8554515e+04 </wgt>
<wgt id='1708'> +8.0434887e+04 </wgt>
<wgt id='1709'> +7.8984143e+04 </wgt>
<wgt id='1710'> +8.1006023e+04 </wgt>
<wgt id='1711'> +8.0328401e+04 </wgt>
<wgt id='1712'> +7.9375517e+04 </wgt>
<wgt id='1713'> +8.5439200e+04 </wgt>
<wgt id='1714'> +7.6628476e+04 </wgt>
<wgt id='1715'> +7.7808377e+04 </wgt>
<wgt id='1716'> +7.9418480e+04 </wgt>
<wgt id='1717'> +7.4372446e+04 </wgt>
<wgt id='1718'> +7.4560894e+04 </wgt>
<wgt id='1719'> +7.4130810e+04 </wgt>
<wgt id='1720'> +7.4482216e+04 </wgt>
<wgt id='1721'> +7.4272175e+04 </wgt>
<wgt id='1722'> +7.4371498e+04 </wgt>
<wgt id='1723'> +7.4374012e+04 </wgt>
<wgt id='1724'> +7.4742624e+04 </wgt>
<wgt id='1725'> +7.4071405e+04 </wgt>
<wgt id='1726'> +7.4282466e+04 </wgt>
<wgt id='1727'> +7.4465386e+04 </wgt>
<wgt id='1728'> +7.4373176e+04 </wgt>
<wgt id='1729'> +7.4373814e+04 </wgt>
<wgt id='1730'> +7.3399821e+04 </wgt>
<wgt id='1731'> +7.5055923e+04 </wgt>
<wgt id='1732'> +7.5522248e+04 </wgt>
<wgt id='1733'> +7.5522248e+04 </wgt>
<wgt id='1734'> +7.3044833e+04 </wgt>
<wgt id='1735'> +7.5277597e+04 </wgt>
<wgt id='1736'> +7.4209745e+04 </wgt>
<wgt id='1737'> +7.4585820e+04 </wgt>
<wgt id='1738'> +7.4317436e+04 </wgt>
<wgt id='1739'> +7.4392150e+04 </wgt>
<wgt id='1740'> +7.4343181e+04 </wgt>
<wgt id='1741'> +7.4439101e+04 </wgt>
<wgt id='1742'> +7.4540138e+04 </wgt>
<wgt id='1743'> +7.4169237e+04 </wgt>
<wgt id='1744'> +7.4289442e+04 </wgt>
<wgt id='1745'> +7.4596389e+04 </wgt>
<wgt id='1746'> +7.3884236e+04 </wgt>
<wgt id='1747'> +7.4613299e+04 </wgt>
<wgt id='1748'> +7.4480157e+04 </wgt>
<wgt id='1749'> +7.3871802e+04 </wgt>
<wgt id='1750'> +7.4602963e+04 </wgt>
<wgt id='1751'> +7.4117593e+04 </wgt>
<wgt id='1752'> +7.4544295e+04 </wgt>
<wgt id='1753'> +7.4137166e+04 </wgt>
<wgt id='1754'> +7.4116316e+04 </wgt>
<wgt id='1755'> +7.4499982e+04 </wgt>
<wgt id='1756'> +7.3973043e+04 </wgt>
<wgt id='1757'> +7.5376917e+04 </wgt>
<wgt id='1758'> +7.4865455e+04 </wgt>
<wgt id='1759'> +7.3471218e+04 </wgt>
<wgt id='1760'> +7.4722875e+04 </wgt>
<wgt id='1761'> +7.4154430e+04 </wgt>
<wgt id='1762'> +7.4533263e+04 </wgt>
<wgt id='1763'> +7.4933465e+04 </wgt>
<wgt id='1764'> +7.4263819e+04 </wgt>
<wgt id='1765'> +7.4857463e+04 </wgt>
<wgt id='1766'> +7.4280842e+04 </wgt>
<wgt id='1767'> +7.4586563e+04 </wgt>
<wgt id='1768'> +7.4526850e+04 </wgt>
<wgt id='1769'> +7.4220198e+04 </wgt>
<wgt id='1770'> +7.3808540e+04 </wgt>
<wgt id='1771'> +7.4876009e+04 </wgt>
<wgt id='1772'> +7.4679219e+04 </wgt>
<wgt id='1773'> +7.4150964e+04 </wgt>
<wgt id='1774'> +7.4343922e+04 </wgt>
<wgt id='1775'> +7.4390007e+04 </wgt>
<wgt id='1776'> +7.4431953e+04 </wgt>
<wgt id='1777'> +7.4376261e+04 </wgt>
<wgt id='1778'> +7.4580223e+04 </wgt>
<wgt id='1779'> +7.4667354e+04 </wgt>
<wgt id='1780'> +7.4364718e+04 </wgt>
<wgt id='1781'> +7.4779178e+04 </wgt>
<wgt id='1782'> +7.4372446e+04 </wgt>
<wgt id='1783'> +7.4381460e+04 </wgt>
<wgt id='1784'> +7.5515744e+04 </wgt>
<wgt id='1785'> +7.5654250e+04 </wgt>
<wgt id='1786'> +7.4451215e+04 </wgt>
<wgt id='1787'> +7.5661441e+04 </wgt>
<wgt id='1788'> +7.5880150e+04 </wgt>
<wgt id='1789'> +7.5475167e+04 </wgt>
<wgt id='1790'> +7.4063423e+04 </wgt>
<wgt id='1791'> +7.5515860e+04 </wgt>
<wgt id='1792'> +7.5505568e+04 </wgt>
<wgt id='1793'> +7.5586651e+04 </wgt>
<wgt id='1794'> +7.6053754e+04 </wgt>
<wgt id='1795'> +7.4030079e+04 </wgt>
<wgt id='1796'> +7.5519882e+04 </wgt>
<wgt id='1797'> +7.6371577e+04 </wgt>
<wgt id='1798'> +7.5398532e+04 </wgt>
<wgt id='1799'> +7.6782836e+04 </wgt>
<wgt id='1800'> +7.5606521e+04 </wgt>
<wgt id='1801'> +7.5589324e+04 </wgt>
<wgt id='1802'> +7.5530127e+04 </wgt>
<wgt id='1803'> +7.5787079e+04 </wgt>
<wgt id='1804'> +7.3845843e+04 </wgt>
<wgt id='1805'> +7.5572331e+04 </wgt>
<wgt id='1806'> +7.5477179e+04 </wgt>
<wgt id='1807'> +7.5558546e+04 </wgt>
<wgt id='1808'> +7.5502648e+04 </wgt>
<wgt id='1809'> +7.5564533e+04 </wgt>
<wgt id='1810'> +7.5497460e+04 </wgt>
<wgt id='1811'> +7.5513125e+04 </wgt>
<wgt id='1812'> +7.5548203e+04 </wgt>
<wgt id='1813'> +7.5478574e+04 </wgt>
<wgt id='1814'> +7.5690754e+04 </wgt>
<wgt id='1815'> +7.5474974e+04 </wgt>
<wgt id='1816'> +7.5561745e+04 </wgt>
<wgt id='1817'> +7.5827204e+04 </wgt>
<wgt id='1818'> +7.5514495e+04 </wgt>
<wgt id='1819'> +7.5427984e+04 </wgt>
<wgt id='1820'> +7.5452346e+04 </wgt>
<wgt id='1821'> +7.5467869e+04 </wgt>
<wgt id='1822'> +7.5444929e+04 </wgt>
<wgt id='1823'> +7.5387211e+04 </wgt>
<wgt id='1824'> +7.5532177e+04 </wgt>
<wgt id='1825'> +7.4893611e+04 </wgt>
<wgt id='1826'> +7.6268969e+04 </wgt>
<wgt id='1827'> +8.9802833e+04 </wgt>
<wgt id='1828'> +8.9947372e+04 </wgt>
<wgt id='1829'> +8.9689670e+04 </wgt>
<wgt id='1830'> +9.0218818e+04 </wgt>
<wgt id='1831'> +8.9415753e+04 </wgt>
<wgt id='1832'> +8.9494671e+04 </wgt>
<wgt id='1833'> +9.0141612e+04 </wgt>
<wgt id='1834'> +8.9132305e+04 </wgt>
<wgt id='1835'> +9.0472301e+04 </wgt>
<wgt id='1836'> +9.0154895e+04 </wgt>
<wgt id='1837'> +8.9423490e+04 </wgt>
<wgt id='1838'> +9.0505082e+04 </wgt>
<wgt id='1839'> +8.9121954e+04 </wgt>
<wgt id='1840'> +9.0426222e+04 </wgt>
<wgt id='1841'> +8.9236625e+04 </wgt>
<wgt id='1842'> +9.0377662e+04 </wgt>
<wgt id='1843'> +9.0241794e+04 </wgt>
<wgt id='1844'> +8.9815916e+04 </wgt>
<wgt id='1845'> +8.9772330e+04 </wgt>
<wgt id='1846'> +8.9357323e+04 </wgt>
<wgt id='1847'> +9.0236120e+04 </wgt>
<wgt id='1848'> +8.9007771e+04 </wgt>
<wgt id='1849'> +9.0511011e+04 </wgt>
<wgt id='1850'> +8.9505480e+04 </wgt>
<wgt id='1851'> +8.9679919e+04 </wgt>
<wgt id='1852'> +8.9802549e+04 </wgt>
<wgt id='1853'> +8.9302156e+04 </wgt>
<wgt id='1854'> +8.9659859e+04 </wgt>
<wgt id='1855'> +9.0034055e+04 </wgt>
<wgt id='1856'> +7.8001417e+04 </wgt>
<wgt id='1857'> +7.7986528e+04 </wgt>
<wgt id='1858'> +7.8009859e+04 </wgt>
<wgt id='1859'> +7.7943409e+04 </wgt>
<wgt id='1860'> +7.8001201e+04 </wgt>
<wgt id='1861'> +7.7954847e+04 </wgt>
<wgt id='1862'> +7.7803357e+04 </wgt>
<wgt id='1863'> +7.7827110e+04 </wgt>
<wgt id='1864'> +7.7710613e+04 </wgt>
<wgt id='1865'> +7.7756094e+04 </wgt>
<wgt id='1866'> +7.8361807e+04 </wgt>
<wgt id='1867'> +7.8135651e+04 </wgt>
<wgt id='1868'> +7.7959138e+04 </wgt>
<wgt id='1869'> +7.8095149e+04 </wgt>
<wgt id='1870'> +7.7907137e+04 </wgt>
<wgt id='1871'> +7.7971925e+04 </wgt>
<wgt id='1872'> +7.7825609e+04 </wgt>
<wgt id='1873'> +7.7970952e+04 </wgt>
<wgt id='1874'> +7.8142318e+04 </wgt>
<wgt id='1875'> +7.8034590e+04 </wgt>
<wgt id='1876'> +7.7676915e+04 </wgt>
<wgt id='1877'> +7.7860660e+04 </wgt>
<wgt id='1878'> +7.7970951e+04 </wgt>
<wgt id='1879'> +7.8075458e+04 </wgt>
<wgt id='1880'> +7.8147189e+04 </wgt>
<wgt id='1881'> +7.8157179e+04 </wgt>
<wgt id='1882'> +7.8133090e+04 </wgt>
<wgt id='1883'> +7.7903212e+04 </wgt>
<wgt id='1884'> +7.7939088e+04 </wgt>
<wgt id='1885'> +7.7197726e+04 </wgt>
<wgt id='1886'> +7.0425297e+04 </wgt>
<wgt id='1887'> +8.1095700e+04 </wgt>
<wgt id='1888'> +7.9268341e+04 </wgt>
<wgt id='1889'> +9.8057127e+04 </wgt>
</rwgt>
</event>
<event npLO=" -1 " npNLO=" 0 ">
 5      0 +7.4519530e+04 3.00000000e+01 7.55820760e-03 1.03623460e-01
       -1 -1    0    0    0  501 +0.0000000000e+00 +0.0000000000e+00 +1.1842565657e+00 1.1842565657e+00 0.0000000000e+00 0.0000e+00 1.0000e+00
        2 -1    0    0  501    0 +0.0000000000e+00 +0.0000000000e+00 -1.2798171383e+03 1.2798171383e+03 0.0000000000e+00 0.0000e+00 -1.0000e+00
       24  2    1    2    0    0 +0.0000000000e+00 +0.0000000000e+00 -1.2786328817e+03 1.2810013949e+03 7.7862233438e+01 0.0000e+00 0.0000e+00
      -11  1    3    3    0    0 -1.1203425522e+01 -1.8284466023e+01 -1.0473704166e+02 1.0690971114e+02 0.0000000000e+00 0.0000e+00 1.0000e+00
       12  1    3    3    0    0 +1.1203425522e+01 +1.8284466023e+01 -1.1738958401e+03 1.1740916837e+03 0.0000000000e+00 0.0000e+00 -1.0000e+00
#aMCatNLO 1  0  0  2  1 0.32888499E+03 0.00000000E+00 -9  5  0 0.00000000E+00 0.00000000E+00 0.00000000E+00 0.00000000E+00 0.00000000E+00
<rwgt>
<wgt id='1001'> +7.4519530e+04 </wgt>
<wgt id='1002'> +7.4486250e+04 </wgt>
<wgt id='1003'> +7.4561050e+04 </wgt>
<wgt id='1004'> +8.1528962e+04 </wgt>
<wgt id='1005'> +8.1556296e+04 </wgt>
<wgt id='1006'> +8.1494864e+04 </wgt>
<wgt id='1007'> +6.6588077e+04 </wgt>
<wgt id='1008'> +6.6507106e+04 </wgt>
<wgt id='1009'> +6.6689088e+04 </wgt>
<wgt id='1010'> +7.4519530e+04 </wgt>
<wgt id='1011'> +7.4475403e+04 </wgt>
<wgt id='1012'> +7.5009935e+04 </wgt>
<wgt id='1013'> +7.3738891e+04 </wgt>
<wgt id='1014'> +7.4287370e+04 </wgt>
<wgt id='1015'> +7.4251344e+04 </wgt>
<wgt id='1016'> +7.4546063e+04 </wgt>
<wgt id='1017'> +7.4474297e+04 </wgt>
<wgt id='1018'> +7.4573056e+04 </wgt>
<wgt id='1019'> +7.4016246e+04 </wgt>
<wgt id='1020'> +7.4241423e+04 </wgt>
<wgt id='1021'> +7.4602570e+04 </wgt>
<wgt id='1022'> +7.4281648e+04 </wgt>
<wgt id='1023'> +7.4595950e+04 </wgt>
<wgt id='1024'> +7.4350672e+04 </wgt>
<wgt id='1025'> +7.4533212e+04 </wgt>
<wgt id='1026'> +7.4545567e+04 </wgt>
<wgt id='1027'> +7.4412736e+04 </wgt>
<wgt id='1028'> +7.4585984e+04 </wgt>
<wgt id='1029'> +7.4805766e+04 </wgt>
<wgt id='1030'> +7.4891744e+04 </wgt>
<wgt id='1031'> +7.4597840e+04 </wgt>
<wgt id='1032'> +7.4514892e+04 </wgt>
<wgt id='1033'> +7.4431189e+04 </wgt>
<wgt id='1034'> +7.4725799e+04 </wgt>
<wgt id='1035'> +7.4520725e+04 </wgt>
<wgt id='1036'> +7.4465729e+04 </wgt>
<wgt id='1037'> +7.4444109e+04 </wgt>
<wgt id='1038'> +7.4634961e+04 </wgt>
<wgt id='1039'> +7.4886460e+04 </wgt>
<wgt id='1040'> +7.4396692e+04 </wgt>
<wgt id='1041'> +7.5060052e+04 </wgt>
<wgt id='1042'> +7.4640747e+04 </wgt>
<wgt id='1043'> +7.4581042e+04 </wgt>
<wgt id='1044'> +7.4657617e+04 </wgt>
<wgt id='1045'> +7.4469624e+04 </wgt>
<wgt id='1046'> +7.4326555e+04 </wgt>
<wgt id='1047'> +7.4755102e+04 </wgt>
<wgt id='1048'> +7.4440624e+04 </wgt>
<wgt id='1049'> +7.4539172e+04 </wgt>
<wgt id='1050'> +7.4655231e+04 </wgt>
<wgt id='1051'> +7.4669814e+04 </wgt>
<wgt id='1052'> +7.4518828e+04 </wgt>
<wgt id='1053'> +7.4528297e+04 </wgt>
<wgt id='1054'> +7.4295752e+04 </wgt>
<wgt id='1055'> +7.4500204e+04 </wgt>
<wgt id='1056'> +7.4515690e+04 </wgt>
<wgt id='1057'> +7.4358057e+04 </wgt>
<wgt id='1058'> +7.4357038e+04 </wgt>
<wgt id='1059'> +7.4515977e+04 </wgt>
<wgt id='1060'> +7.4496087e+04 </wgt>
<wgt id='1061'> +7.4470241e+04 </wgt>
<wgt id='1062'> +7.4500312e+04 </wgt>
<wgt id='1063'> +7.4485064e+04 </wgt>
<wgt id='1064'> +7.4602795e+04 </wgt>
<wgt id='1065'> +7.4574530e+04 </wgt>
<wgt id='1066'> +7.4594873e+04 </wgt>
<wgt id='1067'> +7.4600771e+04 </wgt>
<wgt id='1068'> +7.4538395e+04 </wgt>
<wgt id='1069'> +7.4510867e+04 </wgt>
<wgt id='1070'> +7.4521769e+04 </wgt>
<wgt id='1071'> +7.4573067e+04 </wgt>
<wgt id='1072'> +7.4493589e+04 </wgt>
<wgt id='1073'> +7.4471263e+04 </wgt>
<wgt id='1074'> +7.4524074e+04 </wgt>
<wgt id='1075'> +7.4521794e+04 </wgt>
<wgt id='1076'> +7.4387935e+04 </wgt>
<wgt id='1077'> +7.4531436e+04 </wgt>
<wgt id='1078'> +7.4482878e+04 </wgt>
<wgt id='1079'> +7.4544444e+04 </wgt>
<wgt id='1080'> +7.4466935e+04 </wgt>
<wgt id='1081'> +7.4540325e+04 </wgt>
<wgt id='1082'> +7.4524769e+04 </wgt>
<wgt id='1083'> +7.4605018e+04 </wgt>
<wgt id='1084'> +7.4495456e+04 </wgt>
<wgt id='1085'> +7.4523987e+04 </wgt>
<wgt id='1086'> +7.4537018e+04 </wgt>
<wgt id='1087'> +7.4511156e+04 </wgt>
<wgt id='1088'> +7.4495169e+04 </wgt>
<wgt id='1089'> +7.4587123e+04 </wgt>
<wgt id='1090'> +7.4522712e+04 </wgt>
<wgt id='1091'> +7.4541393e+04 </wgt>
<wgt id='1092'> +7.4543525e+04 </wgt>
<wgt id='1093'> +7.4541611e+04 </wgt>
<wgt id='1094'> +7.4525403e+04 </wgt>
<wgt id='1095'> +7.4557158e+04 </wgt>
<wgt id='1096'> +7.4491870e+04 </wgt>
<wgt id='1097'> +7.4546719e+04 </wgt>
<wgt id='1098'> +7.4530655e+04 </wgt>
<wgt id='1099'> +7.4546317e+04 </wgt>
<wgt id='1100'> +7.4565475e+04 </wgt>
<wgt id='1101'> +7.4518716e+04 </wgt>
<wgt id='1102'> +7.4554080e+04 </wgt>
<wgt id='1103'> +7.4525455e+04 </wgt>
<wgt id='1104'> +7.4526237e+04 </wgt>
<wgt id='1105'> +7.4548776e+04 </wgt>
<wgt id='1106'> +7.4510305e+04 </wgt>
<wgt id='1107'> +7.4502340e+04 </wgt>
<wgt id='1108'> +7.4506967e+04 </wgt>
<wgt id='1109'> +7.4551275e+04 </wgt>
<wgt id='1110'> +7.4519531e+04 </wgt>
<wgt id='1111'> +7.3654590e+04 </wgt>
<wgt id='1112'> +7.5114771e+04 </wgt>
<wgt id='1113'> +7.4519531e+04 </wgt>
<wgt id='1114'> +7.3929816e+04 </wgt>
<wgt id='1115'> +7.7042146e+04 </wgt>
<wgt id='1116'> +7.1672536e+04 </wgt>
<wgt id='1117'> +7.5226038e+04 </wgt>
<wgt id='1118'> +7.3809710e+04 </wgt>
<wgt id='1119'> +7.4536151e+04 </wgt>
<wgt id='1120'> +7.7499495e+04 </wgt>
<wgt id='1121'> +7.4560446e+04 </wgt>
<wgt id='1122'> +7.3632770e+04 </wgt>
<wgt id='1123'> +7.0688317e+04 </wgt>
<wgt id='1124'> +7.3901465e+04 </wgt>
<wgt id='1125'> +7.3821724e+04 </wgt>
<wgt id='1126'> +7.4671825e+04 </wgt>
<wgt id='1127'> +7.4694024e+04 </wgt>
<wgt id='1128'> +7.5703289e+04 </wgt>
<wgt id='1129'> +7.3396632e+04 </wgt>
<wgt id='1130'> +7.2957890e+04 </wgt>
<wgt id='1131'> +7.4338989e+04 </wgt>
<wgt id='1132'> +7.5858089e+04 </wgt>
<wgt id='1133'> +7.5170855e+04 </wgt>
<wgt id='1134'> +7.6588936e+04 </wgt>
<wgt id='1135'> +7.7269883e+04 </wgt>
<wgt id='1136'> +7.7094245e+04 </wgt>
<wgt id='1137'> +7.3760698e+04 </wgt>
<wgt id='1138'> +7.5276141e+04 </wgt>
<wgt id='1139'> +7.3708606e+04 </wgt>
<wgt id='1140'> +7.5421726e+04 </wgt>
<wgt id='1141'> +7.5449224e+04 </wgt>
<wgt id='1142'> +7.3977571e+04 </wgt>
<wgt id='1143'> +7.5730704e+04 </wgt>
<wgt id='1144'> +7.2102400e+04 </wgt>
<wgt id='1145'> +7.4740805e+04 </wgt>
<wgt id='1146'> +7.5656171e+04 </wgt>
<wgt id='1147'> +7.3517328e+04 </wgt>
<wgt id='1148'> +7.4160920e+04 </wgt>
<wgt id='1149'> +7.5096485e+04 </wgt>
<wgt id='1150'> +7.2745064e+04 </wgt>
<wgt id='1151'> +7.5034275e+04 </wgt>
<wgt id='1152'> +7.7993675e+04 </wgt>
<wgt id='1153'> +7.6026213e+04 </wgt>
<wgt id='1154'> +7.4203578e+04 </wgt>
<wgt id='1155'> +7.4600222e+04 </wgt>
<wgt id='1156'> +7.3940547e+04 </wgt>
<wgt id='1157'> +7.5286411e+04 </wgt>
<wgt id='1158'> +7.3361412e+04 </wgt>
<wgt id='1159'> +7.4013845e+04 </wgt>
<wgt id='1160'> +7.6207121e+04 </wgt>
<wgt id='1161'> +7.1575712e+04 </wgt>
<wgt id='1162'> +7.7366081e+04 </wgt>
<wgt id='1163'> +7.2807607e+04 </wgt>
<wgt id='1164'> +7.4274057e+04 </wgt>
<wgt id='1165'> +7.6001899e+04 </wgt>
<wgt id='1166'> +7.6512032e+04 </wgt>
<wgt id='1167'> +7.6718399e+04 </wgt>
<wgt id='1168'> +7.3560002e+04 </wgt>
<wgt id='1169'> +7.2740510e+04 </wgt>
<wgt id='1170'> +7.3394036e+04 </wgt>
<wgt id='1171'> +7.4767943e+04 </wgt>
<wgt id='1172'> +7.5075487e+04 </wgt>
<wgt id='1173'> +7.2234513e+04 </wgt>
<wgt id='1174'> +7.5794313e+04 </wgt>
<wgt id='1175'> +7.3676640e+04 </wgt>
<wgt id='1176'> +7.5212949e+04 </wgt>
<wgt id='1177'> +7.1752535e+04 </wgt>
<wgt id='1178'> +7.4793827e+04 </wgt>
<wgt id='1179'> +7.3012065e+04 </wgt>
<wgt id='1180'> +7.4671809e+04 </wgt>
<wgt id='1181'> +7.5036911e+04 </wgt>
<wgt id='1182'> +7.6349261e+04 </wgt>
<wgt id='1183'> +7.6773559e+04 </wgt>
<wgt id='1184'> +7.5522404e+04 </wgt>
<wgt id='1185'> +7.1971225e+04 </wgt>
<wgt id='1186'> +7.2735140e+04 </wgt>
<wgt id='1187'> +7.5488148e+04 </wgt>
<wgt id='1188'> +7.2678960e+04 </wgt>
<wgt id='1189'> +7.4282641e+04 </wgt>
<wgt id='1190'> +7.5186152e+04 </wgt>
<wgt id='1191'> +7.6157530e+04 </wgt>
<wgt id='1192'> +7.2058131e+04 </wgt>
<wgt id='1193'> +7.2669976e+04 </wgt>
<wgt id='1194'> +7.5013459e+04 </wgt>
<wgt id='1195'> +7.3396632e+04 </wgt>
<wgt id='1196'> +7.3668556e+04 </wgt>
<wgt id='1197'> +7.4353740e+04 </wgt>
<wgt id='1198'> +7.6777185e+04 </wgt>
<wgt id='1199'> +7.4768444e+04 </wgt>
<wgt id='1200'> +7.5165375e+04 </wgt>
<wgt id='1201'> +7.4527148e+04 </wgt>
<wgt id='1202'> +7.1477624e+04 </wgt>
<wgt id='1203'> +7.3959197e+04 </wgt>
<wgt id='1204'> +7.6017731e+04 </wgt>
<wgt id='1205'> +7.5968743e+04 </wgt>
<wgt id='1206'> +7.4370056e+04 </wgt>
<wgt id='1207'> +7.5258100e+04 </wgt>
<wgt id='1208'> +7.3188768e+04 </wgt>
<wgt id='1209'> +7.7415553e+04 </wgt>
<wgt id='1210'> +6.9717127e+04 </wgt>
<wgt id='1211'> +7.4538400e+04 </wgt>
<wgt id='1212'> +7.3781823e+04 </wgt>
<wgt id='1213'> +7.4849690e+04 </wgt>
<wgt id='1214'> +7.4482419e+04 </wgt>
<wgt id='1215'> +7.0713579e+04 </wgt>
<wgt id='1216'> +7.1295750e+04 </wgt>
<wgt id='1217'> +7.2224834e+04 </wgt>
<wgt id='1218'> +7.3108496e+04 </wgt>
<wgt id='1219'> +7.4419834e+04 </wgt>
<wgt id='1220'> +7.4723561e+04 </wgt>
<wgt id='1221'> +7.6220869e+04 </wgt>
<wgt id='1222'> +7.6809633e+04 </wgt>
<wgt id='1223'> +7.2658496e+04 </wgt>
<wgt id='1224'> +7.2060892e+04 </wgt>
<wgt id='1225'> +7.3472600e+04 </wgt>
<wgt id='1226'> +7.2266421e+04 </wgt>
<wgt id='1227'> +7.2856066e+04 </wgt>
<wgt id='1228'> +7.2798015e+04 </wgt>
<wgt id='1229'> +7.2131838e+04 </wgt>
<wgt id='1230'> +7.3023550e+04 </wgt>
<wgt id='1231'> +7.3295434e+04 </wgt>
<wgt id='1232'> +7.2925277e+04 </wgt>
<wgt id='1233'> +7.2641330e+04 </wgt>
<wgt id='1234'> +7.2557316e+04 </wgt>
<wgt id='1235'> +7.2867282e+04 </wgt>
<wgt id='1236'> +7.2873551e+04 </wgt>
<wgt id='1237'> +7.2370035e+04 </wgt>
<wgt id='1238'> +7.2984235e+04 </wgt>
<wgt id='1239'> +7.2854245e+04 </wgt>
<wgt id='1240'> +7.2703236e+04 </wgt>
<wgt id='1241'> +7.2793614e+04 </wgt>
<wgt id='1242'> +7.2694904e+04 </wgt>
<wgt id='1243'> +7.2568671e+04 </wgt>
<wgt id='1244'> +7.2647909e+04 </wgt>
<wgt id='1245'> +7.2743436e+04 </wgt>
<wgt id='1246'> +7.2751912e+04 </wgt>
<wgt id='1247'> +7.2755168e+04 </wgt>
<wgt id='1248'> +7.2456382e+04 </wgt>
<wgt id='1249'> +7.2649664e+04 </wgt>
<wgt id='1250'> +7.2591263e+04 </wgt>
<wgt id='1251'> +7.2833127e+04 </wgt>
<wgt id='1252'> +7.2855550e+04 </wgt>
<wgt id='1253'> +7.1939810e+04 </wgt>
<wgt id='1254'> +7.2289548e+04 </wgt>
<wgt id='1255'> +7.2844570e+04 </wgt>
<wgt id='1256'> +7.2760076e+04 </wgt>
<wgt id='1257'> +7.2605621e+04 </wgt>
<wgt id='1258'> +7.2810656e+04 </wgt>
<wgt id='1259'> +7.2748259e+04 </wgt>
<wgt id='1260'> +7.2436297e+04 </wgt>
<wgt id='1261'> +7.2713155e+04 </wgt>
<wgt id='1262'> +7.2656699e+04 </wgt>
<wgt id='1263'> +7.2617497e+04 </wgt>
<wgt id='1264'> +7.2763928e+04 </wgt>
<wgt id='1265'> +7.2817159e+04 </wgt>
<wgt id='1266'> +7.2491010e+04 </wgt>
<wgt id='1267'> +7.2671693e+04 </wgt>
<wgt id='1268'> +7.2711549e+04 </wgt>
<wgt id='1269'> +7.2545020e+04 </wgt>
<wgt id='1270'> +7.2608510e+04 </wgt>
<wgt id='1271'> +7.2744703e+04 </wgt>
<wgt id='1272'> +7.2636736e+04 </wgt>
<wgt id='1273'> +7.2616109e+04 </wgt>
<wgt id='1274'> +7.2765816e+04 </wgt>
<wgt id='1275'> +7.2755781e+04 </wgt>
<wgt id='1276'> +7.2628510e+04 </wgt>
<wgt id='1277'> +7.2702866e+04 </wgt>
<wgt id='1278'> +7.2585083e+04 </wgt>
<wgt id='1279'> +7.2654795e+04 </wgt>
<wgt id='1280'> +7.2712529e+04 </wgt>
<wgt id='1281'> +7.2691185e+04 </wgt>
<wgt id='1282'> +7.2664372e+04 </wgt>
<wgt id='1283'> +7.2637648e+04 </wgt>
<wgt id='1284'> +7.2612765e+04 </wgt>
<wgt id='1285'> +7.2567061e+04 </wgt>
<wgt id='1286'> +7.2651674e+04 </wgt>
<wgt id='1287'> +7.2618018e+04 </wgt>
<wgt id='1288'> +7.2616678e+04 </wgt>
<wgt id='1289'> +7.2633548e+04 </wgt>
<wgt id='1290'> +7.2593687e+04 </wgt>
<wgt id='1291'> +7.2701888e+04 </wgt>
<wgt id='1292'> +7.2651909e+04 </wgt>
<wgt id='1293'> +7.2513222e+04 </wgt>
<wgt id='1294'> +7.2598001e+04 </wgt>
<wgt id='1295'> +7.2575513e+04 </wgt>
<wgt id='1296'> +7.2595224e+04 </wgt>
<wgt id='1297'> +7.2733010e+04 </wgt>
<wgt id='1298'> +7.2698011e+04 </wgt>
<wgt id='1299'> +7.2649399e+04 </wgt>
<wgt id='1300'> +7.2566998e+04 </wgt>
<wgt id='1301'> +7.2697479e+04 </wgt>
<wgt id='1302'> +7.2686190e+04 </wgt>
<wgt id='1303'> +7.2628889e+04 </wgt>
<wgt id='1304'> +7.2698701e+04 </wgt>
<wgt id='1305'> +7.2686169e+04 </wgt>
<wgt id='1306'> +7.2719847e+04 </wgt>
<wgt id='1307'> +7.2668550e+04 </wgt>
<wgt id='1308'> +7.2694891e+04 </wgt>
<wgt id='1309'> +7.2613619e+04 </wgt>
<wgt id='1310'> +7.2667531e+04 </wgt>
<wgt id='1311'> +7.2653346e+04 </wgt>
<wgt id='1312'> +7.2674341e+04 </wgt>
<wgt id='1313'> +7.2699215e+04 </wgt>
<wgt id='1314'> +7.2659830e+04 </wgt>
<wgt id='1315'> +7.2663890e+04 </wgt>
<wgt id='1316'> +7.2649767e+04 </wgt>
<wgt id='1317'> +7.2640595e+04 </wgt>
<wgt id='1318'> +7.2664242e+04 </wgt>
<wgt id='1319'> +7.2630566e+04 </wgt>
<wgt id='1320'> +7.2602926e+04 </wgt>
<wgt id='1321'> +7.2685018e+04 </wgt>
<wgt id='1322'> +7.2701877e+04 </wgt>
<wgt id='1323'> +7.2718966e+04 </wgt>
<wgt id='1324'> +7.1698604e+04 </wgt>
<wgt id='1325'> +7.3360394e+04 </wgt>
<wgt id='1326'> +7.4412496e+04 </wgt>
<wgt id='1327'> +7.2163672e+04 </wgt>
<wgt id='1328'> +7.4327098e+04 </wgt>
<wgt id='1329'> +7.4517705e+04 </wgt>
<wgt id='1330'> +7.4290865e+04 </wgt>
<wgt id='1331'> +7.4712292e+04 </wgt>
<wgt id='1332'> +7.4837392e+04 </wgt>
<wgt id='1333'> +7.4801758e+04 </wgt>
<wgt id='1334'> +7.2463219e+04 </wgt>
<wgt id='1335'> +7.3340520e+04 </wgt>
<wgt id='1336'> +7.5120154e+04 </wgt>
<wgt id='1337'> +7.4768801e+04 </wgt>
<wgt id='1338'> +7.4312044e+04 </wgt>
<wgt id='1339'> +7.4693467e+04 </wgt>
<wgt id='1340'> +7.4754565e+04 </wgt>
<wgt id='1341'> +7.3142492e+04 </wgt>
<wgt id='1342'> +7.4268500e+04 </wgt>
<wgt id='1343'> +7.3985528e+04 </wgt>
<wgt id='1344'> +7.2150765e+04 </wgt>
<wgt id='1345'> +7.6354279e+04 </wgt>
<wgt id='1346'> +7.3582618e+04 </wgt>
<wgt id='1347'> +7.5230461e+04 </wgt>
<wgt id='1348'> +7.4267667e+04 </wgt>
<wgt id='1349'> +7.4415352e+04 </wgt>
<wgt id='1350'> +7.1754025e+04 </wgt>
<wgt id='1351'> +7.4008453e+04 </wgt>
<wgt id='1352'> +7.3758783e+04 </wgt>
<wgt id='1353'> +7.4337039e+04 </wgt>
<wgt id='1354'> +7.5759849e+04 </wgt>
<wgt id='1355'> +7.5027565e+04 </wgt>
<wgt id='1356'> +7.4848793e+04 </wgt>
<wgt id='1357'> +7.3949220e+04 </wgt>
<wgt id='1358'> +7.3827194e+04 </wgt>
<wgt id='1359'> +7.4688366e+04 </wgt>
<wgt id='1360'> +7.3265779e+04 </wgt>
<wgt id='1361'> +7.6007616e+04 </wgt>
<wgt id='1362'> +7.4519270e+04 </wgt>
<wgt id='1363'> +7.4341009e+04 </wgt>
<wgt id='1364'> +7.4649695e+04 </wgt>
<wgt id='1365'> +7.3391624e+04 </wgt>
<wgt id='1366'> +7.4361090e+04 </wgt>
<wgt id='1367'> +7.4192348e+04 </wgt>
<wgt id='1368'> +7.5360518e+04 </wgt>
<wgt id='1369'> +7.3193217e+04 </wgt>
<wgt id='1370'> +7.4337862e+04 </wgt>
<wgt id='1371'> +7.3959927e+04 </wgt>
<wgt id='1372'> +7.4221058e+04 </wgt>
<wgt id='1373'> +7.3997677e+04 </wgt>
<wgt id='1374'> +7.5626352e+04 </wgt>
<wgt id='1375'> +7.5566935e+04 </wgt>
<wgt id='1376'> +7.4804207e+04 </wgt>
<wgt id='1377'> +7.3964201e+04 </wgt>
<wgt id='1378'> +7.3204642e+04 </wgt>
<wgt id='1379'> +7.5843858e+04 </wgt>
<wgt id='1380'> +7.2606903e+04 </wgt>
<wgt id='1381'> +7.3835186e+04 </wgt>
<wgt id='1382'> +7.3241796e+04 </wgt>
<wgt id='1383'> +7.4772521e+04 </wgt>
<wgt id='1384'> +7.4069696e+04 </wgt>
<wgt id='1385'> +7.2730867e+04 </wgt>
<wgt id='1386'> +7.4660788e+04 </wgt>
<wgt id='1387'> +7.4296524e+04 </wgt>
<wgt id='1388'> +7.5683642e+04 </wgt>
<wgt id='1389'> +7.3662597e+04 </wgt>
<wgt id='1390'> +7.1995515e+04 </wgt>
<wgt id='1391'> +7.4398785e+04 </wgt>
<wgt id='1392'> +7.4241851e+04 </wgt>
<wgt id='1393'> +7.3064918e+04 </wgt>
<wgt id='1394'> +7.3391624e+04 </wgt>
<wgt id='1395'> +7.4087314e+04 </wgt>
<wgt id='1396'> +7.2330562e+04 </wgt>
<wgt id='1397'> +7.5085624e+04 </wgt>
<wgt id='1398'> +7.5504498e+04 </wgt>
<wgt id='1399'> +7.5132768e+04 </wgt>
<wgt id='1400'> +7.6395446e+04 </wgt>
<wgt id='1401'> +7.5010208e+04 </wgt>
<wgt id='1402'> +7.4642885e+04 </wgt>
<wgt id='1403'> +7.3504009e+04 </wgt>
<wgt id='1404'> +7.5817649e+04 </wgt>
<wgt id='1405'> +7.2370702e+04 </wgt>
<wgt id='1406'> +7.3716021e+04 </wgt>
<wgt id='1407'> +7.3881705e+04 </wgt>
<wgt id='1408'> +7.6189078e+04 </wgt>
<wgt id='1409'> +7.4242513e+04 </wgt>
<wgt id='1410'> +7.4254772e+04 </wgt>
<wgt id='1411'> +7.4667191e+04 </wgt>
<wgt id='1412'> +7.5940718e+04 </wgt>
<wgt id='1413'> +7.4751122e+04 </wgt>
<wgt id='1414'> +7.4409579e+04 </wgt>
<wgt id='1415'> +7.3654669e+04 </wgt>
<wgt id='1416'> +7.5530583e+04 </wgt>
<wgt id='1417'> +7.3860652e+04 </wgt>
<wgt id='1418'> +7.6304463e+04 </wgt>
<wgt id='1419'> +7.6021306e+04 </wgt>
<wgt id='1420'> +7.3829515e+04 </wgt>
<wgt id='1421'> +7.4355633e+04 </wgt>
<wgt id='1422'> +7.3937184e+04 </wgt>
<wgt id='1423'> +7.4166635e+04 </wgt>
<wgt id='1424'> +7.4336611e+04 </wgt>
<wgt id='1425'> +7.3100656e+04 </wgt>
<wgt id='1426'> +7.4374444e+04 </wgt>
<wgt id='1427'> +7.4713058e+04 </wgt>
<wgt id='1428'> +7.5072649e+04 </wgt>
<wgt id='1429'> +7.4197808e+04 </wgt>
<wgt id='1430'> +7.4401581e+04 </wgt>
<wgt id='1431'> +7.4255299e+04 </wgt>
<wgt id='1432'> +7.4997639e+04 </wgt>
<wgt id='1433'> +7.4241066e+04 </wgt>
<wgt id='1434'> +7.4007058e+04 </wgt>
<wgt id='1435'> +7.4126222e+04 </wgt>
<wgt id='1436'> +7.4211136e+04 </wgt>
<wgt id='1437'> +7.4319672e+04 </wgt>
<wgt id='1438'> +7.4357805e+04 </wgt>
<wgt id='1439'> +7.4135452e+04 </wgt>
<wgt id='1440'> +7.4308821e+04 </wgt>
<wgt id='1441'> +7.4251996e+04 </wgt>
<wgt id='1442'> +7.4364450e+04 </wgt>
<wgt id='1443'> +7.4257289e+04 </wgt>
<wgt id='1444'> +7.4124069e+04 </wgt>
<wgt id='1445'> +7.4185512e+04 </wgt>
<wgt id='1446'> +7.4281525e+04 </wgt>
<wgt id='1447'> +7.4023824e+04 </wgt>
<wgt id='1448'> +7.4430606e+04 </wgt>
<wgt id='1449'> +7.4230400e+04 </wgt>
<wgt id='1450'> +7.3940540e+04 </wgt>
<wgt id='1451'> +7.4249329e+04 </wgt>
<wgt id='1452'> +7.4295132e+04 </wgt>
<wgt id='1453'> +7.4220031e+04 </wgt>
<wgt id='1454'> +7.4238156e+04 </wgt>
<wgt id='1455'> +7.4137531e+04 </wgt>
<wgt id='1456'> +7.4105544e+04 </wgt>
<wgt id='1457'> +7.4379221e+04 </wgt>
<wgt id='1458'> +7.4251115e+04 </wgt>
<wgt id='1459'> +7.4291302e+04 </wgt>
<wgt id='1460'> +7.4252070e+04 </wgt>
<wgt id='1461'> +7.4280761e+04 </wgt>
<wgt id='1462'> +7.4280733e+04 </wgt>
<wgt id='1463'> +7.4216731e+04 </wgt>
<wgt id='1464'> +7.4237268e+04 </wgt>
<wgt id='1465'> +7.4241831e+04 </wgt>
<wgt id='1466'> +7.4235911e+04 </wgt>
<wgt id='1467'> +7.4130701e+04 </wgt>
<wgt id='1468'> +7.4212714e+04 </wgt>
<wgt id='1469'> +7.4259457e+04 </wgt>
<wgt id='1470'> +7.4288704e+04 </wgt>
<wgt id='1471'> +7.4196065e+04 </wgt>
<wgt id='1472'> +7.4276009e+04 </wgt>
<wgt id='1473'> +7.4251342e+04 </wgt>
<wgt id='1474'> +7.4213434e+04 </wgt>
<wgt id='1475'> +7.4246913e+04 </wgt>
<wgt id='1476'> +7.4258609e+04 </wgt>
<wgt id='1477'> +7.4210754e+04 </wgt>
<wgt id='1478'> +7.4218545e+04 </wgt>
<wgt id='1479'> +7.4223868e+04 </wgt>
<wgt id='1480'> +7.4274846e+04 </wgt>
<wgt id='1481'> +7.4227331e+04 </wgt>
<wgt id='1482'> +7.4197808e+04 </wgt>
<wgt id='1483'> +7.4401581e+04 </wgt>
<wgt id='1484'> +7.8486609e+04 </wgt>
<wgt id='1485'> +7.8419892e+04 </wgt>
<wgt id='1486'> +7.9225829e+04 </wgt>
<wgt id='1487'> +7.6974324e+04 </wgt>
<wgt id='1488'> +7.7406359e+04 </wgt>
<wgt id='1489'> +7.8700679e+04 </wgt>
<wgt id='1490'> +7.5962610e+04 </wgt>
<wgt id='1491'> +7.8770433e+04 </wgt>
<wgt id='1492'> +7.5935848e+04 </wgt>
<wgt id='1493'> +7.8858174e+04 </wgt>
<wgt id='1494'> +7.8384704e+04 </wgt>
<wgt id='1495'> +7.6763486e+04 </wgt>
<wgt id='1496'> +7.7574511e+04 </wgt>
<wgt id='1497'> +7.8368291e+04 </wgt>
<wgt id='1498'> +7.9389718e+04 </wgt>
<wgt id='1499'> +7.8984826e+04 </wgt>
<wgt id='1500'> +7.8071454e+04 </wgt>
<wgt id='1501'> +7.7625157e+04 </wgt>
<wgt id='1502'> +7.9012693e+04 </wgt>
<wgt id='1503'> +7.7809884e+04 </wgt>
<wgt id='1504'> +7.8583541e+04 </wgt>
<wgt id='1505'> +7.8845308e+04 </wgt>
<wgt id='1506'> +7.8832644e+04 </wgt>
<wgt id='1507'> +7.7581889e+04 </wgt>
<wgt id='1508'> +7.5550212e+04 </wgt>
<wgt id='1509'> +7.7748511e+04 </wgt>
<wgt id='1510'> +7.9239558e+04 </wgt>
<wgt id='1511'> +7.8025721e+04 </wgt>
<wgt id='1512'> +7.7527994e+04 </wgt>
<wgt id='1513'> +7.8337335e+04 </wgt>
<wgt id='1514'> +7.8436108e+04 </wgt>
<wgt id='1515'> +7.8036171e+04 </wgt>
<wgt id='1516'> +7.6768935e+04 </wgt>
<wgt id='1517'> +7.9061650e+04 </wgt>
<wgt id='1518'> +7.8430785e+04 </wgt>
<wgt id='1519'> +7.8609369e+04 </wgt>
<wgt id='1520'> +7.8949925e+04 </wgt>
<wgt id='1521'> +7.6439155e+04 </wgt>
<wgt id='1522'> +7.9233338e+04 </wgt>
<wgt id='1523'> +7.9313317e+04 </wgt>
<wgt id='1524'> +7.8159643e+04 </wgt>
<wgt id='1525'> +7.8764317e+04 </wgt>
<wgt id='1526'> +7.8709654e+04 </wgt>
<wgt id='1527'> +7.8908476e+04 </wgt>
<wgt id='1528'> +7.9469679e+04 </wgt>
<wgt id='1529'> +8.0028665e+04 </wgt>
<wgt id='1530'> +7.8457393e+04 </wgt>
<wgt id='1531'> +7.8037502e+04 </wgt>
<wgt id='1532'> +7.6251752e+04 </wgt>
<wgt id='1533'> +7.9139039e+04 </wgt>
<wgt id='1534'> +7.9309629e+04 </wgt>
<wgt id='1535'> +7.7787589e+04 </wgt>
<wgt id='1536'> +7.9186374e+04 </wgt>
<wgt id='1537'> +7.8193931e+04 </wgt>
<wgt id='1538'> +8.0264198e+04 </wgt>
<wgt id='1539'> +7.8732522e+04 </wgt>
<wgt id='1540'> +7.9690798e+04 </wgt>
<wgt id='1541'> +7.9345091e+04 </wgt>
<wgt id='1542'> +7.9458269e+04 </wgt>
<wgt id='1543'> +7.8983661e+04 </wgt>
<wgt id='1544'> +8.0048155e+04 </wgt>
<wgt id='1545'> +7.8779216e+04 </wgt>
<wgt id='1546'> +7.8393840e+04 </wgt>
<wgt id='1547'> +7.9562803e+04 </wgt>
<wgt id='1548'> +7.7846092e+04 </wgt>
<wgt id='1549'> +7.9923128e+04 </wgt>
<wgt id='1550'> +8.0139444e+04 </wgt>
<wgt id='1551'> +8.0506275e+04 </wgt>
<wgt id='1552'> +7.8511128e+04 </wgt>
<wgt id='1553'> +8.0627090e+04 </wgt>
<wgt id='1554'> +7.6781949e+04 </wgt>
<wgt id='1555'> +7.8641615e+04 </wgt>
<wgt id='1556'> +7.8693329e+04 </wgt>
<wgt id='1557'> +7.7405348e+04 </wgt>
<wgt id='1558'> +7.9371211e+04 </wgt>
<wgt id='1559'> +7.9305410e+04 </wgt>
<wgt id='1560'> +7.8112293e+04 </wgt>
<wgt id='1561'> +7.8964274e+04 </wgt>
<wgt id='1562'> +7.9052876e+04 </wgt>
<wgt id='1563'> +7.8077861e+04 </wgt>
<wgt id='1564'> +7.7899480e+04 </wgt>
<wgt id='1565'> +7.7224567e+04 </wgt>
<wgt id='1566'> +7.8598966e+04 </wgt>
<wgt id='1567'> +8.0530598e+04 </wgt>
<wgt id='1568'> +7.8958666e+04 </wgt>
<wgt id='1569'> +7.9532258e+04 </wgt>
<wgt id='1570'> +8.0472834e+04 </wgt>
<wgt id='1571'> +7.9634311e+04 </wgt>
<wgt id='1572'> +7.7470948e+04 </wgt>
<wgt id='1573'> +7.9182625e+04 </wgt>
<wgt id='1574'> +7.7629178e+04 </wgt>
<wgt id='1575'> +7.6049301e+04 </wgt>
<wgt id='1576'> +7.9603441e+04 </wgt>
<wgt id='1577'> +7.6198667e+04 </wgt>
<wgt id='1578'> +7.8101356e+04 </wgt>
<wgt id='1579'> +7.8080010e+04 </wgt>
<wgt id='1580'> +8.0019955e+04 </wgt>
<wgt id='1581'> +7.9144973e+04 </wgt>
<wgt id='1582'> +7.7851511e+04 </wgt>
<wgt id='1583'> +7.7932074e+04 </wgt>
<wgt id='1584'> +7.7217002e+04 </wgt>
<wgt id='1585'> +7.5010414e+04 </wgt>
<wgt id='1586'> +6.7151321e+04 </wgt>
<wgt id='1587'> +7.3707674e+04 </wgt>
<wgt id='1588'> +7.4197808e+04 </wgt>
<wgt id='1589'> +7.4139350e+04 </wgt>
<wgt id='1590'> +7.4095354e+04 </wgt>
<wgt id='1591'> +7.4401581e+04 </wgt>
<wgt id='1592'> +7.4424307e+04 </wgt>
<wgt id='1593'> +7.6910328e+04 </wgt>
<wgt id='1594'> +7.7208898e+04 </wgt>
<wgt id='1595'> +7.7323433e+04 </wgt>
<wgt id='1596'> +7.6734430e+04 </wgt>
<wgt id='1597'> +7.6999704e+04 </wgt>
<wgt id='1598'> +7.5917199e+04 </wgt>
<wgt id='1599'> +7.7885856e+04 </wgt>
<wgt id='1600'> +7.5673283e+04 </wgt>
<wgt id='1601'> +7.8054089e+04 </wgt>
<wgt id='1602'> +7.6716841e+04 </wgt>
<wgt id='1603'> +7.7277738e+04 </wgt>
<wgt id='1604'> +7.7644198e+04 </wgt>
<wgt id='1605'> +7.6432464e+04 </wgt>
<wgt id='1606'> +7.6073164e+04 </wgt>
<wgt id='1607'> +7.7412710e+04 </wgt>
<wgt id='1608'> +7.5743144e+04 </wgt>
<wgt id='1609'> +7.7610385e+04 </wgt>
<wgt id='1610'> +7.6650669e+04 </wgt>
<wgt id='1611'> +7.6983525e+04 </wgt>
<wgt id='1612'> +7.7370948e+04 </wgt>
<wgt id='1613'> +7.5770956e+04 </wgt>
<wgt id='1614'> +7.6495692e+04 </wgt>
<wgt id='1615'> +7.7640726e+04 </wgt>
<wgt id='1616'> +7.6314204e+04 </wgt>
<wgt id='1617'> +7.7092446e+04 </wgt>
<wgt id='1618'> +7.7061264e+04 </wgt>
<wgt id='1619'> +7.6520324e+04 </wgt>
<wgt id='1620'> +7.7611368e+04 </wgt>
<wgt id='1621'> +7.6420139e+04 </wgt>
<wgt id='1622'> +7.7729509e+04 </wgt>
<wgt id='1623'> +7.6148348e+04 </wgt>
<wgt id='1624'> +7.7223903e+04 </wgt>
<wgt id='1625'> +7.5550295e+04 </wgt>
<wgt id='1626'> +7.6311354e+04 </wgt>
<wgt id='1627'> +7.7372805e+04 </wgt>
<wgt id='1628'> +7.7188085e+04 </wgt>
<wgt id='1629'> +7.7237158e+04 </wgt>
<wgt id='1630'> +7.6555584e+04 </wgt>
<wgt id='1631'> +7.6879016e+04 </wgt>
<wgt id='1632'> +7.6325547e+04 </wgt>
<wgt id='1633'> +7.7530646e+04 </wgt>
<wgt id='1634'> +7.7778170e+04 </wgt>
<wgt id='1635'> +7.6239182e+04 </wgt>
<wgt id='1636'> +7.7281146e+04 </wgt>
<wgt id='1637'> +7.7439367e+04 </wgt>
<wgt id='1638'> +7.6753390e+04 </wgt>
<wgt id='1639'> +7.6953429e+04 </wgt>
<wgt id='1640'> +7.7867996e+04 </wgt>
<wgt id='1641'> +7.6229907e+04 </wgt>
<wgt id='1642'> +7.6435108e+04 </wgt>
<wgt id='1643'> +7.7584540e+04 </wgt>
<wgt id='1644'> +7.7622057e+04 </wgt>
<wgt id='1645'> +7.6028271e+04 </wgt>
<wgt id='1646'> +7.6874045e+04 </wgt>
<wgt id='1647'> +7.7695128e+04 </wgt>
<wgt id='1648'> +7.7525953e+04 </wgt>
<wgt id='1649'> +7.7471485e+04 </wgt>
<wgt id='1650'> +7.8827218e+04 </wgt>
<wgt id='1651'> +7.5086960e+04 </wgt>
<wgt id='1652'> +7.6272032e+04 </wgt>
<wgt id='1653'> +7.6588972e+04 </wgt>
<wgt id='1654'> +7.7239187e+04 </wgt>
<wgt id='1655'> +7.7577483e+04 </wgt>
<wgt id='1656'> +7.7916928e+04 </wgt>
<wgt id='1657'> +7.8363605e+04 </wgt>
<wgt id='1658'> +7.7964899e+04 </wgt>
<wgt id='1659'> +7.7794911e+04 </wgt>
<wgt id='1660'> +7.8103552e+04 </wgt>
<wgt id='1661'> +7.8369385e+04 </wgt>
<wgt id='1662'> +7.7387685e+04 </wgt>
<wgt id='1663'> +7.7800003e+04 </wgt>
<wgt id='1664'> +7.7544926e+04 </wgt>
<wgt id='1665'> +7.7176285e+04 </wgt>
<wgt id='1666'> +7.8071122e+04 </wgt>
<wgt id='1667'> +7.7452339e+04 </wgt>
<wgt id='1668'> +7.8267640e+04 </wgt>
<wgt id='1669'> +7.8219952e+04 </wgt>
<wgt id='1670'> +7.7365944e+04 </wgt>
<wgt id='1671'> +7.7873628e+04 </wgt>
<wgt id='1672'> +7.8173013e+04 </wgt>
<wgt id='1673'> +7.9071506e+04 </wgt>
<wgt id='1674'> +7.7237714e+04 </wgt>
<wgt id='1675'> +7.8899081e+04 </wgt>
<wgt id='1676'> +7.7335504e+04 </wgt>
<wgt id='1677'> +7.7745836e+04 </wgt>
<wgt id='1678'> +7.8173259e+04 </wgt>
<wgt id='1679'> +7.7960765e+04 </wgt>
<wgt id='1680'> +7.8735314e+04 </wgt>
<wgt id='1681'> +7.7957698e+04 </wgt>
<wgt id='1682'> +7.7517690e+04 </wgt>
<wgt id='1683'> +7.7712076e+04 </wgt>
<wgt id='1684'> +7.8197677e+04 </wgt>
<wgt id='1685'> +7.9125822e+04 </wgt>
<wgt id='1686'> +7.6789586e+04 </wgt>
<wgt id='1687'> +7.8595521e+04 </wgt>
<wgt id='1688'> +7.6972838e+04 </wgt>
<wgt id='1689'> +7.7294182e+04 </wgt>
<wgt id='1690'> +7.8986422e+04 </wgt>
<wgt id='1691'> +7.8090217e+04 </wgt>
<wgt id='1692'> +7.8066884e+04 </wgt>
<wgt id='1693'> +7.8399761e+04 </wgt>
<wgt id='1694'> +7.8107707e+04 </wgt>
<wgt id='1695'> +7.7518295e+04 </wgt>
<wgt id='1696'> +7.8993032e+04 </wgt>
<wgt id='1697'> +7.8554207e+04 </wgt>
<wgt id='1698'> +7.7591182e+04 </wgt>
<wgt id='1699'> +7.7604389e+04 </wgt>
<wgt id='1700'> +7.8249581e+04 </wgt>
<wgt id='1701'> +7.7511519e+04 </wgt>
<wgt id='1702'> +7.8593307e+04 </wgt>
<wgt id='1703'> +7.8064845e+04 </wgt>
<wgt id='1704'> +7.8288232e+04 </wgt>
<wgt id='1705'> +7.7623085e+04 </wgt>
<wgt id='1706'> +7.8493650e+04 </wgt>
<wgt id='1707'> +7.6457482e+04 </wgt>
<wgt id='1708'> +7.8943378e+04 </wgt>
<wgt id='1709'> +7.7596668e+04 </wgt>
<wgt id='1710'> +7.8590340e+04 </wgt>
<wgt id='1711'> +7.7952102e+04 </wgt>
<wgt id='1712'> +7.8063408e+04 </wgt>
<wgt id='1713'> +7.9872271e+04 </wgt>
<wgt id='1714'> +7.5950646e+04 </wgt>
<wgt id='1715'> +7.5997525e+04 </wgt>
<wgt id='1716'> +7.7889676e+04 </wgt>
<wgt id='1717'> +7.3641792e+04 </wgt>
<wgt id='1718'> +7.3820577e+04 </wgt>
<wgt id='1719'> +7.3412542e+04 </wgt>
<wgt id='1720'> +7.3706235e+04 </wgt>
<wgt id='1721'> +7.3582922e+04 </wgt>
<wgt id='1722'> +7.3621866e+04 </wgt>
<wgt id='1723'> +7.3674431e+04 </wgt>
<wgt id='1724'> +7.3861713e+04 </wgt>
<wgt id='1725'> +7.3462884e+04 </wgt>
<wgt id='1726'> +7.3499957e+04 </wgt>
<wgt id='1727'> +7.3788150e+04 </wgt>
<wgt id='1728'> +7.3395113e+04 </wgt>
<wgt id='1729'> +7.3881772e+04 </wgt>
<wgt id='1730'> +7.3403958e+04 </wgt>
<wgt id='1731'> +7.3809133e+04 </wgt>
<wgt id='1732'> +7.4242245e+04 </wgt>
<wgt id='1733'> +7.4242245e+04 </wgt>
<wgt id='1734'> +7.3297531e+04 </wgt>
<wgt id='1735'> +7.3870929e+04 </wgt>
<wgt id='1736'> +7.3215147e+04 </wgt>
<wgt id='1737'> +7.4225207e+04 </wgt>
<wgt id='1738'> +7.3872667e+04 </wgt>
<wgt id='1739'> +7.3204339e+04 </wgt>
<wgt id='1740'> +7.3541775e+04 </wgt>
<wgt id='1741'> +7.3878928e+04 </wgt>
<wgt id='1742'> +7.3662363e+04 </wgt>
<wgt id='1743'> +7.3608088e+04 </wgt>
<wgt id='1744'> +7.3545798e+04 </wgt>
<wgt id='1745'> +7.3901176e+04 </wgt>
<wgt id='1746'> +7.3167260e+04 </wgt>
<wgt id='1747'> +7.3881682e+04 </wgt>
<wgt id='1748'> +7.3812916e+04 </wgt>
<wgt id='1749'> +7.3005482e+04 </wgt>
<wgt id='1750'> +7.3599578e+04 </wgt>
<wgt id='1751'> +7.3685588e+04 </wgt>
<wgt id='1752'> +7.3610015e+04 </wgt>
<wgt id='1753'> +7.3684346e+04 </wgt>
<wgt id='1754'> +7.3495026e+04 </wgt>
<wgt id='1755'> +7.3710998e+04 </wgt>
<wgt id='1756'> +7.3202081e+04 </wgt>
<wgt id='1757'> +7.4736024e+04 </wgt>
<wgt id='1758'> +7.3861388e+04 </wgt>
<wgt id='1759'> +7.3123131e+04 </wgt>
<wgt id='1760'> +7.3936251e+04 </wgt>
<wgt id='1761'> +7.3409398e+04 </wgt>
<wgt id='1762'> +7.3645766e+04 </wgt>
<wgt id='1763'> +7.3886617e+04 </wgt>
<wgt id='1764'> +7.3549189e+04 </wgt>
<wgt id='1765'> +7.4030764e+04 </wgt>
<wgt id='1766'> +7.3630687e+04 </wgt>
<wgt id='1767'> +7.3753630e+04 </wgt>
<wgt id='1768'> +7.3799682e+04 </wgt>
<wgt id='1769'> +7.3539106e+04 </wgt>
<wgt id='1770'> +7.3367385e+04 </wgt>
<wgt id='1771'> +7.4114081e+04 </wgt>
<wgt id='1772'> +7.3763258e+04 </wgt>
<wgt id='1773'> +7.3330595e+04 </wgt>
<wgt id='1774'> +7.3455536e+04 </wgt>
<wgt id='1775'> +7.3744395e+04 </wgt>
<wgt id='1776'> +7.3858972e+04 </wgt>
<wgt id='1777'> +7.3549550e+04 </wgt>
<wgt id='1778'> +7.3789602e+04 </wgt>
<wgt id='1779'> +7.3810041e+04 </wgt>
<wgt id='1780'> +7.3768325e+04 </wgt>
<wgt id='1781'> +7.3946884e+04 </wgt>
<wgt id='1782'> +7.3641792e+04 </wgt>
<wgt id='1783'> +7.3649748e+04 </wgt>
<wgt id='1784'> +7.4740187e+04 </wgt>
<wgt id='1785'> +7.4576516e+04 </wgt>
<wgt id='1786'> +7.3569664e+04 </wgt>
<wgt id='1787'> +7.4713757e+04 </wgt>
<wgt id='1788'> +7.5031513e+04 </wgt>
<wgt id='1789'> +7.4790876e+04 </wgt>
<wgt id='1790'> +7.4273586e+04 </wgt>
<wgt id='1791'> +7.4601700e+04 </wgt>
<wgt id='1792'> +7.4497259e+04 </wgt>
<wgt id='1793'> +7.4824483e+04 </wgt>
<wgt id='1794'> +7.5192973e+04 </wgt>
<wgt id='1795'> +7.3804729e+04 </wgt>
<wgt id='1796'> +7.4747610e+04 </wgt>
<wgt id='1797'> +7.5010795e+04 </wgt>
<wgt id='1798'> +7.4579863e+04 </wgt>
<wgt id='1799'> +7.5434384e+04 </wgt>
<wgt id='1800'> +7.5036053e+04 </wgt>
<wgt id='1801'> +7.5120665e+04 </wgt>
<wgt id='1802'> +7.4771315e+04 </wgt>
<wgt id='1803'> +7.4993806e+04 </wgt>
<wgt id='1804'> +7.3725901e+04 </wgt>
<wgt id='1805'> +7.4743557e+04 </wgt>
<wgt id='1806'> +7.4564322e+04 </wgt>
<wgt id='1807'> +7.4803375e+04 </wgt>
<wgt id='1808'> +7.4763210e+04 </wgt>
<wgt id='1809'> +7.3945208e+04 </wgt>
<wgt id='1810'> +7.4679470e+04 </wgt>
<wgt id='1811'> +7.4612991e+04 </wgt>
<wgt id='1812'> +7.4777496e+04 </wgt>
<wgt id='1813'> +7.4647675e+04 </wgt>
<wgt id='1814'> +7.4653566e+04 </wgt>
<wgt id='1815'> +7.4692707e+04 </wgt>
<wgt id='1816'> +7.4734723e+04 </wgt>
<wgt id='1817'> +7.4477663e+04 </wgt>
<wgt id='1818'> +7.4732275e+04 </wgt>
<wgt id='1819'> +7.4533027e+04 </wgt>
<wgt id='1820'> +7.4695640e+04 </wgt>
<wgt id='1821'> +7.4674876e+04 </wgt>
<wgt id='1822'> +7.4568040e+04 </wgt>
<wgt id='1823'> +7.4641701e+04 </wgt>
<wgt id='1824'> +7.4784355e+04 </wgt>
<wgt id='1825'> +7.4423749e+04 </wgt>
<wgt id='1826'> +7.5274722e+04 </wgt>
<wgt id='1827'> +8.3746258e+04 </wgt>
<wgt id='1828'> +8.3881092e+04 </wgt>
<wgt id='1829'> +8.3647781e+04 </wgt>
<wgt id='1830'> +8.3977070e+04 </wgt>
<wgt id='1831'> +8.3550336e+04 </wgt>
<wgt id='1832'> +8.3611157e+04 </wgt>
<wgt id='1833'> +8.3916314e+04 </wgt>
<wgt id='1834'> +8.3336437e+04 </wgt>
<wgt id='1835'> +8.4172066e+04 </wgt>
<wgt id='1836'> +8.4117071e+04 </wgt>
<wgt id='1837'> +8.3385860e+04 </wgt>
<wgt id='1838'> +8.4086322e+04 </wgt>
<wgt id='1839'> +8.3436997e+04 </wgt>
<wgt id='1840'> +8.3554106e+04 </wgt>
<wgt id='1841'> +8.3989198e+04 </wgt>
<wgt id='1842'> +8.3904946e+04 </wgt>
<wgt id='1843'> +8.4163924e+04 </wgt>
<wgt id='1844'> +8.3995440e+04 </wgt>
<wgt id='1845'> +8.3510086e+04 </wgt>
<wgt id='1846'> +8.3696959e+04 </wgt>
<wgt id='1847'> +8.3813239e+04 </wgt>
<wgt id='1848'> +8.3173078e+04 </wgt>
<wgt id='1849'> +8.4275705e+04 </wgt>
<wgt id='1850'> +8.3808340e+04 </wgt>
<wgt id='1851'> +8.3621113e+04 </wgt>
<wgt id='1852'> +8.3672774e+04 </wgt>
<wgt id='1853'> +8.3561495e+04 </wgt>
<wgt id='1854'> +8.3517016e+04 </wgt>
<wgt id='1855'> +8.3860038e+04 </wgt>
<wgt id='1856'> +7.3682020e+04 </wgt>
<wgt id='1857'> +7.3670661e+04 </wgt>
<wgt id='1858'> +7.3687581e+04 </wgt>
<wgt id='1859'> +7.3646236e+04 </wgt>
<wgt id='1860'> +7.3682355e+04 </wgt>
<wgt id='1861'> +7.3673375e+04 </wgt>
<wgt id='1862'> +7.3475277e+04 </wgt>
<wgt id='1863'> +7.3578831e+04 </wgt>
<wgt id='1864'> +7.3489492e+04 </wgt>
<wgt id='1865'> +7.3493828e+04 </wgt>
<wgt id='1866'> +7.3974886e+04 </wgt>
<wgt id='1867'> +7.3616310e+04 </wgt>
<wgt id='1868'> +7.3620020e+04 </wgt>
<wgt id='1869'> +7.3735306e+04 </wgt>
<wgt id='1870'> +7.3615596e+04 </wgt>
<wgt id='1871'> +7.3683892e+04 </wgt>
<wgt id='1872'> +7.3623561e+04 </wgt>
<wgt id='1873'> +7.3648268e+04 </wgt>
<wgt id='1874'> +7.3757007e+04 </wgt>
<wgt id='1875'> +7.3800956e+04 </wgt>
<wgt id='1876'> +7.3432663e+04 </wgt>
<wgt id='1877'> +7.3520316e+04 </wgt>
<wgt id='1878'> +7.3602161e+04 </wgt>
<wgt id='1879'> +7.3916918e+04 </wgt>
<wgt id='1880'> +7.3864508e+04 </wgt>
<wgt id='1881'> +7.3863929e+04 </wgt>
<wgt id='1882'> +7.3687287e+04 </wgt>
<wgt id='1883'> +7.3705977e+04 </wgt>
<wgt id='1884'> +7.3589278e+04 </wgt>
<wgt id='1885'> +7.3029806e+04 </wgt>
<wgt id='1886'> +6.7650023e+04 </wgt>
<wgt id='1887'> +7.1210375e+04 </wgt>
<wgt id='1888'> +6.7855712e+04 </wgt>
<wgt id='1889'> +7.7421940e+04 </wgt>
</rwgt>
</event>
<event npLO=" -1 " npNLO=" 0 ">
 5      1 +7.4519530e+04 1.44203380e+01 7.55820760e-03 1.19823530e-01
        1 -1    0    0  501    0 +0.0000000000e+00 +0.0000000000e+00 +3.2780400149e+02 3.2780400149e+02 0.0000000000e+00 0.0000e+00 -1.0000e+00
       -2 -1    0    0    0  501 +0.0000000000e+00 +0.0000000000e+00 -5.0725446961e+00 5.0725446961e+00 0.0000000000e+00 0.0000e+00 1.0000e+00
      -24  2    1    2    0    0 +0.0000000000e+00 +0.0000000000e+00 +3.2273145679e+02 3.3287654618e+02 8.1554900506e+01 0.0000e+00 0.0000e+00
       13  1    3    3    0    0 -2.0333774085e+01 +1.7308001228e+01 +2.8715471743e+02 2.8839358699e+02 0.0000000000e+00 0.0000e+00 -1.0000e+00
      -14  1    3    3    0    0 +2.0333774085e+01 -1.7308001228e+01 +3.5576739366e+01 4.4482959197e+01 0.0000000000e+00 0.0000e+00 1.0000e+00
#aMCatNLO 1  0  0  1  2 0.13702479E+02 0.00000000E+00 -9  5  0 0.00000000E+00 0.00000000E+00 0.00000000E+00 0.00000000E+00 0.00000000E+00
<rwgt>
<wgt id='1001'> +7.4519530e+04 </wgt>
<wgt id='1002'> +7.2523030e+04 </wgt>
<wgt id='1003'> +7.7002941e+04 </wgt>
<wgt id='1004'> +9.5928139e+04 </wgt>
<wgt id='1005'> +9.2431017e+04 </wgt>
<wgt id='1006'> +1.0028011e+05 </wgt>
<wgt id='1007'> +5.6115728e+04 </wgt>
<wgt id='1008'> +5.5280299e+04 </wgt>
<wgt id='1009'> +5.7153475e+04 </wgt>
<wgt id='1010'> +7.4519530e+04 </wgt>
<wgt id='1011'> +7.4737023e+04 </wgt>
<wgt id='1012'> +7.4289642e+04 </wgt>
<wgt id='1013'> +7.4306255e+04 </wgt>
<wgt id='1014'> +7.4727761e+04 </wgt>
<wgt id='1015'> +7.4488467e+04 </wgt>
<wgt id='1016'> +7.4397875e+04 </wgt>
<wgt id='1017'> +7.4572162e+04 </wgt>
<wgt id='1018'> +7.4068517e+04 </wgt>
<wgt id='1019'> +7.4832011e+04 </wgt>
<wgt id='1020'> +7.4282868e+04 </wgt>
<wgt id='1021'> +7.4577172e+04 </wgt>
<wgt id='1022'> +7.4542461e+04 </wgt>
<wgt id='1023'> +7.4637951e+04 </wgt>
<wgt id='1024'> +7.4713073e+04 </wgt>
<wgt id='1025'> +7.5119756e+04 </wgt>
<wgt id='1026'> +7.4252270e+04 </wgt>
<wgt id='1027'> +7.4542418e+04 </wgt>
<wgt id='1028'> +7.4211743e+04 </wgt>
<wgt id='1029'> +7.4669642e+04 </wgt>
<wgt id='1030'> +7.4463468e+04 </wgt>
<wgt id='1031'> +7.4562492e+04 </wgt>
<wgt id='1032'> +7.4891832e+04 </wgt>
<wgt id='1033'> +7.4380157e+04 </wgt>
<wgt id='1034'> +7.4520715e+04 </wgt>
<wgt id='1035'> +7.4367734e+04 </wgt>
<wgt id='1036'> +7.4233317e+04 </wgt>
<wgt id='1037'> +7.5233739e+04 </wgt>
<wgt id='1038'> +7.4733417e+04 </wgt>
<wgt id='1039'> +7.4779183e+04 </wgt>
<wgt id='1040'> +7.4513842e+04 </wgt>
<wgt id='1041'> +7.5245548e+04 </wgt>
<wgt id='1042'> +7.4420100e+04 </wgt>
<wgt id='1043'> +7.4765477e+04 </wgt>
<wgt id='1044'> +7.4629222e+04 </wgt>
<wgt id='1045'> +7.4601431e+04 </wgt>
<wgt id='1046'> +7.4432174e+04 </wgt>
<wgt id='1047'> +7.4463158e+04 </wgt>
<wgt id='1048'> +7.4590459e+04 </wgt>
<wgt id='1049'> +7.4899076e+04 </wgt>
<wgt id='1050'> +7.4554474e+04 </wgt>
<wgt id='1051'> +7.4834041e+04 </wgt>
<wgt id='1052'> +7.4614812e+04 </wgt>
<wgt id='1053'> +7.4419048e+04 </wgt>
<wgt id='1054'> +7.4104060e+04 </wgt>
<wgt id='1055'> +7.4420610e+04 </wgt>
<wgt id='1056'> +7.4678848e+04 </wgt>
<wgt id='1057'> +7.4437853e+04 </wgt>
<wgt id='1058'> +7.4682170e+04 </wgt>
<wgt id='1059'> +7.4433564e+04 </wgt>
<wgt id='1060'> +7.4344630e+04 </wgt>
<wgt id='1061'> +7.4319946e+04 </wgt>
<wgt id='1062'> +7.4632620e+04 </wgt>
<wgt id='1063'> +7.4642003e+04 </wgt>
<wgt id='1064'> +7.4607121e+04 </wgt>
<wgt id='1065'> +7.4412695e+04 </wgt>
<wgt id='1066'> +7.4538329e+04 </wgt>
<wgt id='1067'> +7.4652750e+04 </wgt>
<wgt id='1068'> +7.4587026e+04 </wgt>
<wgt id='1069'> +7.4693241e+04 </wgt>
<wgt id='1070'> +7.4523778e+04 </wgt>
<wgt id='1071'> +7.4654672e+04 </wgt>
<wgt id='1072'> +7.4460643e+04 </wgt>
<wgt id='1073'> +7.4413475e+04 </wgt>
<wgt id='1074'> +7.4391288e+04 </wgt>
<wgt id='1075'> +7.4656806e+04 </wgt>
<wgt id='1076'> +7.4524523e+04 </wgt>
<wgt id='1077'> +7.4441847e+04 </wgt>
<wgt id='1078'> +7.4603611e+04 </wgt>
<wgt id='1079'> +7.4617484e+04 </wgt>
<wgt id='1080'> +7.4565172e+04 </wgt>
<wgt id='1081'> +7.4480578e+04 </wgt>
<wgt id='1082'> +7.4481628e+04 </wgt>
<wgt id='1083'> +7.4417814e+04 </wgt>
<wgt id='1084'> +7.4649284e+04 </wgt>
<wgt id='1085'> +7.4408466e+04 </wgt>
<wgt id='1086'> +7.4574146e+04 </wgt>
<wgt id='1087'> +7.4498943e+04 </wgt>
<wgt id='1088'> +7.4463956e+04 </wgt>
<wgt id='1089'> +7.4586004e+04 </wgt>
<wgt id='1090'> +7.4526069e+04 </wgt>
<wgt id='1091'> +7.4437212e+04 </wgt>
<wgt id='1092'> +7.4496219e+04 </wgt>
<wgt id='1093'> +7.4434387e+04 </wgt>
<wgt id='1094'> +7.4550421e+04 </wgt>
<wgt id='1095'> +7.4440177e+04 </wgt>
<wgt id='1096'> +7.4516146e+04 </wgt>
<wgt id='1097'> +7.4540159e+04 </wgt>
<wgt id='1098'> +7.4441309e+04 </wgt>
<wgt id='1099'> +7.4466878e+04 </wgt>
<wgt id='1100'> +7.4520792e+04 </wgt>
<wgt id='1101'> +7.4485135e+04 </wgt>
<wgt id='1102'> +7.4498908e+04 </wgt>
<wgt id='1103'> +7.4449276e+04 </wgt>
<wgt id='1104'> +7.4456770e+04 </wgt>
<wgt id='1105'> +7.4513006e+04 </wgt>
<wgt id='1106'> +7.4390620e+04 </wgt>
<wgt id='1107'> +7.4484540e+04 </wgt>
<wgt id='1108'> +7.4565572e+04 </wgt>
<wgt id='1109'> +7.4480622e+04 </wgt>
<wgt id='1110'> +7.4519531e+04 </wgt>
<wgt id='1111'> +7.3403738e+04 </wgt>
<wgt id='1112'> +7.5388403e+04 </wgt>
<wgt id='1113'> +7.4519531e+04 </wgt>
<wgt id='1114'> +8.0035331e+04 </wgt>
<wgt id='1115'> +7.5608044e+04 </wgt>
<wgt id='1116'> +7.2906651e+04 </wgt>
<wgt id='1117'> +7.1075542e+04 </wgt>
<wgt id='1118'> +7.2592495e+04 </wgt>
<wgt id='1119'> +7.6495094e+04 </wgt>
<wgt id='1120'> +7.5526106e+04 </wgt>
<wgt id='1121'> +7.4244136e+04 </wgt>
<wgt id='1122'> +7.3988875e+04 </wgt>
<wgt id='1123'> +7.3351900e+04 </wgt>
<wgt id='1124'> +7.4362354e+04 </wgt>
<wgt id='1125'> +7.2001965e+04 </wgt>
<wgt id='1126'> +7.3188318e+04 </wgt>
<wgt id='1127'> +7.6832774e+04 </wgt>
<wgt id='1128'> +7.5770416e+04 </wgt>
<wgt id='1129'> +7.4226092e+04 </wgt>
<wgt id='1130'> +7.6231118e+04 </wgt>
<wgt id='1131'> +7.3851424e+04 </wgt>
<wgt id='1132'> +7.5826415e+04 </wgt>
<wgt id='1133'> +7.1777513e+04 </wgt>
<wgt id='1134'> +7.3663520e+04 </wgt>
<wgt id='1135'> +7.5154740e+04 </wgt>
<wgt id='1136'> +7.6826873e+04 </wgt>
<wgt id='1137'> +7.3538722e+04 </wgt>
<wgt id='1138'> +7.4202858e+04 </wgt>
<wgt id='1139'> +7.6473510e+04 </wgt>
<wgt id='1140'> +7.7824289e+04 </wgt>
<wgt id='1141'> +7.4414475e+04 </wgt>
<wgt id='1142'> +7.5026246e+04 </wgt>
<wgt id='1143'> +7.6845679e+04 </wgt>
<wgt id='1144'> +7.4422254e+04 </wgt>
<wgt id='1145'> +7.2857387e+04 </wgt>
<wgt id='1146'> +7.5973451e+04 </wgt>
<wgt id='1147'> +7.1943507e+04 </wgt>
<wgt id='1148'> +7.4333857e+04 </wgt>
<wgt id='1149'> +7.5370558e+04 </wgt>
<wgt id='1150'> +7.4086224e+04 </wgt>
<wgt id='1151'> +7.3442907e+04 </wgt>
<wgt id='1152'> +7.3896588e+04 </wgt>
<wgt id='1153'> +7.3966935e+04 </wgt>
<wgt id='1154'> +7.2749070e+04 </wgt>
<wgt id='1155'> +7.5668748e+04 </wgt>
<wgt id='1156'> +7.4430825e+04 </wgt>
<wgt id='1157'> +7.4033436e+04 </wgt>
<wgt id='1158'> +7.4199711e+04 </wgt>
<wgt id='1159'> +7.3900223e+04 </wgt>
<wgt id='1160'> +7.3858704e+04 </wgt>
<wgt id='1161'> +7.5478886e+04 </wgt>
<wgt id='1162'> +7.7094952e+04 </wgt>
<wgt id='1163'> +7.3877738e+04 </wgt>
<wgt id='1164'> +7.5742463e+04 </wgt>
<wgt id='1165'> +7.4165672e+04 </wgt>
<wgt id='1166'> +7.5448510e+04 </wgt>
<wgt id='1167'> +7.6287077e+04 </wgt>
<wgt id='1168'> +7.4470485e+04 </wgt>
<wgt id='1169'> +7.5687198e+04 </wgt>
<wgt id='1170'> +7.8360850e+04 </wgt>
<wgt id='1171'> +7.5280973e+04 </wgt>
<wgt id='1172'> +7.5890466e+04 </wgt>
<wgt id='1173'> +7.6512272e+04 </wgt>
<wgt id='1174'> +7.4582839e+04 </wgt>
<wgt id='1175'> +7.5450031e+04 </wgt>
<wgt id='1176'> +7.3309052e+04 </wgt>
<wgt id='1177'> +7.3639723e+04 </wgt>
<wgt id='1178'> +7.5021618e+04 </wgt>
<wgt id='1179'> +7.7943603e+04 </wgt>
<wgt id='1180'> +7.4851276e+04 </wgt>
<wgt id='1181'> +7.5457114e+04 </wgt>
<wgt id='1182'> +7.3699831e+04 </wgt>
<wgt id='1183'> +7.3984973e+04 </wgt>
<wgt id='1184'> +7.3870783e+04 </wgt>
<wgt id='1185'> +7.7705624e+04 </wgt>
<wgt id='1186'> +7.0125272e+04 </wgt>
<wgt id='1187'> +7.1438157e+04 </wgt>
<wgt id='1188'> +7.3296365e+04 </wgt>
<wgt id='1189'> +7.5596767e+04 </wgt>
<wgt id='1190'> +7.0985157e+04 </wgt>
<wgt id='1191'> +7.5245433e+04 </wgt>
<wgt id='1192'> +7.2974244e+04 </wgt>
<wgt id='1193'> +7.2805514e+04 </wgt>
<wgt id='1194'> +7.3617556e+04 </wgt>
<wgt id='1195'> +7.4226092e+04 </wgt>
<wgt id='1196'> +7.1144395e+04 </wgt>
<wgt id='1197'> +7.3919929e+04 </wgt>
<wgt id='1198'> +7.3832809e+04 </wgt>
<wgt id='1199'> +8.0205279e+04 </wgt>
<wgt id='1200'> +7.5032301e+04 </wgt>
<wgt id='1201'> +7.5422134e+04 </wgt>
<wgt id='1202'> +6.7857876e+04 </wgt>
<wgt id='1203'> +7.2363231e+04 </wgt>
<wgt id='1204'> +7.5903121e+04 </wgt>
<wgt id='1205'> +7.3673155e+04 </wgt>
<wgt id='1206'> +7.3808576e+04 </wgt>
<wgt id='1207'> +7.7145679e+04 </wgt>
<wgt id='1208'> +7.4028319e+04 </wgt>
<wgt id='1209'> +7.4793696e+04 </wgt>
<wgt id='1210'> +7.4941999e+04 </wgt>
<wgt id='1211'> +7.3540791e+04 </wgt>
<wgt id='1212'> +7.3299186e+04 </wgt>
<wgt id='1213'> +7.4034287e+04 </wgt>
<wgt id='1214'> +7.4416124e+04 </wgt>
<wgt id='1215'> +7.0711404e+04 </wgt>
<wgt id='1216'> +7.1044314e+04 </wgt>
<wgt id='1217'> +7.1946722e+04 </wgt>
<wgt id='1218'> +7.3081481e+04 </wgt>
<wgt id='1219'> +7.4148642e+04 </wgt>
<wgt id='1220'> +7.4822105e+04 </wgt>
<wgt id='1221'> +7.6218701e+04 </wgt>
<wgt id='1222'> +7.6578678e+04 </wgt>
<wgt id='1223'> +7.2658359e+04 </wgt>
<wgt id='1224'> +7.2569833e+04 </wgt>
<wgt id='1225'> +7.2863551e+04 </wgt>
<wgt id='1226'> +7.2555531e+04 </wgt>
<wgt id='1227'> +7.3013176e+04 </wgt>
<wgt id='1228'> +7.2658057e+04 </wgt>
<wgt id='1229'> +7.2404428e+04 </wgt>
<wgt id='1230'> +7.2640611e+04 </wgt>
<wgt id='1231'> +7.2620424e+04 </wgt>
<wgt id='1232'> +7.2737173e+04 </wgt>
<wgt id='1233'> +7.2275738e+04 </wgt>
<wgt id='1234'> +7.2536493e+04 </wgt>
<wgt id='1235'> +7.2738909e+04 </wgt>
<wgt id='1236'> +7.2782867e+04 </wgt>
<wgt id='1237'> +7.2873061e+04 </wgt>
<wgt id='1238'> +7.2295438e+04 </wgt>
<wgt id='1239'> +7.2842419e+04 </wgt>
<wgt id='1240'> +7.2516833e+04 </wgt>
<wgt id='1241'> +7.2874049e+04 </wgt>
<wgt id='1242'> +7.2705814e+04 </wgt>
<wgt id='1243'> +7.2327463e+04 </wgt>
<wgt id='1244'> +7.2995068e+04 </wgt>
<wgt id='1245'> +7.2730154e+04 </wgt>
<wgt id='1246'> +7.2776989e+04 </wgt>
<wgt id='1247'> +7.3078903e+04 </wgt>
<wgt id='1248'> +7.2272857e+04 </wgt>
<wgt id='1249'> +7.2675550e+04 </wgt>
<wgt id='1250'> +7.2567406e+04 </wgt>
<wgt id='1251'> +7.2667178e+04 </wgt>
<wgt id='1252'> +7.3456014e+04 </wgt>
<wgt id='1253'> +7.2366968e+04 </wgt>
<wgt id='1254'> +7.2018568e+04 </wgt>
<wgt id='1255'> +7.2966950e+04 </wgt>
<wgt id='1256'> +7.2553596e+04 </wgt>
<wgt id='1257'> +7.2585450e+04 </wgt>
<wgt id='1258'> +7.2834413e+04 </wgt>
<wgt id='1259'> +7.2735460e+04 </wgt>
<wgt id='1260'> +7.2391308e+04 </wgt>
<wgt id='1261'> +7.2590519e+04 </wgt>
<wgt id='1262'> +7.2759950e+04 </wgt>
<wgt id='1263'> +7.2632003e+04 </wgt>
<wgt id='1264'> +7.2896536e+04 </wgt>
<wgt id='1265'> +7.2496928e+04 </wgt>
<wgt id='1266'> +7.2414713e+04 </wgt>
<wgt id='1267'> +7.2520754e+04 </wgt>
<wgt id='1268'> +7.2451740e+04 </wgt>
<wgt id='1269'> +7.2786505e+04 </wgt>
<wgt id='1270'> +7.2925959e+04 </wgt>
<wgt id='1271'> +7.2817215e+04 </wgt>
<wgt id='1272'> +7.2645393e+04 </wgt>
<wgt id='1273'> +7.2757752e+04 </wgt>
<wgt id='1274'> +7.2566507e+04 </wgt>
<wgt id='1275'> +7.2566040e+04 </wgt>
<wgt id='1276'> +7.2560808e+04 </wgt>
<wgt id='1277'> +7.2653989e+04 </wgt>
<wgt id='1278'> +7.2845572e+04 </wgt>
<wgt id='1279'> +7.2484429e+04 </wgt>
<wgt id='1280'> +7.2623886e+04 </wgt>
<wgt id='1281'> +7.2679598e+04 </wgt>
<wgt id='1282'> +7.2700487e+04 </wgt>
<wgt id='1283'> +7.2536431e+04 </wgt>
<wgt id='1284'> +7.2740868e+04 </wgt>
<wgt id='1285'> +7.2723730e+04 </wgt>
<wgt id='1286'> +7.2878854e+04 </wgt>
<wgt id='1287'> +7.2618894e+04 </wgt>
<wgt id='1288'> +7.2593960e+04 </wgt>
<wgt id='1289'> +7.2738882e+04 </wgt>
<wgt id='1290'> +7.2585137e+04 </wgt>
<wgt id='1291'> +7.2664993e+04 </wgt>
<wgt id='1292'> +7.2681895e+04 </wgt>
<wgt id='1293'> +7.2757723e+04 </wgt>
<wgt id='1294'> +7.2707853e+04 </wgt>
<wgt id='1295'> +7.2788519e+04 </wgt>
<wgt id='1296'> +7.2640438e+04 </wgt>
<wgt id='1297'> +7.2718192e+04 </wgt>
<wgt id='1298'> +7.2702755e+04 </wgt>
<wgt id='1299'> +7.2681870e+04 </wgt>
<wgt id='1300'> +7.2717433e+04 </wgt>
<wgt id='1301'> +7.2788689e+04 </wgt>
<wgt id='1302'> +7.2721283e+04 </wgt>
<wgt id='1303'> +7.2682549e+04 </wgt>
<wgt id='1304'> +7.2748267e+04 </wgt>
<wgt id='1305'> +7.2598731e+04 </wgt>
<wgt id='1306'> +7.2627984e+04 </wgt>
<wgt id='1307'> +7.2666096e+04 </wgt>
<wgt id='1308'> +7.2592788e+04 </wgt>
<wgt id='1309'> +7.2699893e+04 </wgt>
<wgt id='1310'> +7.2518230e+04 </wgt>
<wgt id='1311'> +7.2691183e+04 </wgt>
<wgt id='1312'> +7.2683116e+04 </wgt>
<wgt id='1313'> +7.2758762e+04 </wgt>
<wgt id='1314'> +7.2695684e+04 </wgt>
<wgt id='1315'> +7.2659187e+04 </wgt>
<wgt id='1316'> +7.2702999e+04 </wgt>
<wgt id='1317'> +7.2665791e+04 </wgt>
<wgt id='1318'> +7.2619341e+04 </wgt>
<wgt id='1319'> +7.2570300e+04 </wgt>
<wgt id='1320'> +7.2592971e+04 </wgt>
<wgt id='1321'> +7.2719654e+04 </wgt>
<wgt id='1322'> +7.2672600e+04 </wgt>
<wgt id='1323'> +7.2689919e+04 </wgt>
<wgt id='1324'> +7.1801061e+04 </wgt>
<wgt id='1325'> +7.3733351e+04 </wgt>
<wgt id='1326'> +7.1717857e+04 </wgt>
<wgt id='1327'> +6.7539193e+04 </wgt>
<wgt id='1328'> +7.3086434e+04 </wgt>
<wgt id='1329'> +7.1991728e+04 </wgt>
<wgt id='1330'> +7.4502895e+04 </wgt>
<wgt id='1331'> +7.2734443e+04 </wgt>
<wgt id='1332'> +7.5209819e+04 </wgt>
<wgt id='1333'> +7.3404726e+04 </wgt>
<wgt id='1334'> +7.1818621e+04 </wgt>
<wgt id='1335'> +7.0753054e+04 </wgt>
<wgt id='1336'> +7.3482635e+04 </wgt>
<wgt id='1337'> +7.3944720e+04 </wgt>
<wgt id='1338'> +7.2475215e+04 </wgt>
<wgt id='1339'> +7.3329549e+04 </wgt>
<wgt id='1340'> +7.1584173e+04 </wgt>
<wgt id='1341'> +7.1164932e+04 </wgt>
<wgt id='1342'> +7.5012996e+04 </wgt>
<wgt id='1343'> +7.3189429e+04 </wgt>
<wgt id='1344'> +7.2400212e+04 </wgt>
<wgt id='1345'> +7.5233465e+04 </wgt>
<wgt id='1346'> +7.3875025e+04 </wgt>
<wgt id='1347'> +7.3708151e+04 </wgt>
<wgt id='1348'> +6.8543907e+04 </wgt>
<wgt id='1349'> +7.3349682e+04 </wgt>
<wgt id='1350'> +7.3746542e+04 </wgt>
<wgt id='1351'> +7.1359089e+04 </wgt>
<wgt id='1352'> +7.5634475e+04 </wgt>
<wgt id='1353'> +7.5552541e+04 </wgt>
<wgt id='1354'> +7.2362541e+04 </wgt>
<wgt id='1355'> +7.4391498e+04 </wgt>
<wgt id='1356'> +7.4539133e+04 </wgt>
<wgt id='1357'> +7.2479162e+04 </wgt>
<wgt id='1358'> +7.3761846e+04 </wgt>
<wgt id='1359'> +7.2656532e+04 </wgt>
<wgt id='1360'> +7.5468396e+04 </wgt>
<wgt id='1361'> +7.5484947e+04 </wgt>
<wgt id='1362'> +7.3489618e+04 </wgt>
<wgt id='1363'> +7.1678006e+04 </wgt>
<wgt id='1364'> +7.2758042e+04 </wgt>
<wgt id='1365'> +7.3338575e+04 </wgt>
<wgt id='1366'> +7.3750988e+04 </wgt>
<wgt id='1367'> +7.4889867e+04 </wgt>
<wgt id='1368'> +7.2964169e+04 </wgt>
<wgt id='1369'> +7.2671743e+04 </wgt>
<wgt id='1370'> +7.0135239e+04 </wgt>
<wgt id='1371'> +7.3542048e+04 </wgt>
<wgt id='1372'> +7.5888143e+04 </wgt>
<wgt id='1373'> +7.2576568e+04 </wgt>
<wgt id='1374'> +7.3787472e+04 </wgt>
<wgt id='1375'> +7.4075402e+04 </wgt>
<wgt id='1376'> +7.2662054e+04 </wgt>
<wgt id='1377'> +7.5032332e+04 </wgt>
<wgt id='1378'> +7.2757230e+04 </wgt>
<wgt id='1379'> +7.2812947e+04 </wgt>
<wgt id='1380'> +7.2698496e+04 </wgt>
<wgt id='1381'> +7.3634700e+04 </wgt>
<wgt id='1382'> +7.0278522e+04 </wgt>
<wgt id='1383'> +7.2400710e+04 </wgt>
<wgt id='1384'> +7.3396435e+04 </wgt>
<wgt id='1385'> +6.6383982e+04 </wgt>
<wgt id='1386'> +7.4610197e+04 </wgt>
<wgt id='1387'> +7.3608994e+04 </wgt>
<wgt id='1388'> +7.4271936e+04 </wgt>
<wgt id='1389'> +7.3273423e+04 </wgt>
<wgt id='1390'> +6.8720535e+04 </wgt>
<wgt id='1391'> +7.2094606e+04 </wgt>
<wgt id='1392'> +7.1665313e+04 </wgt>
<wgt id='1393'> +7.0404687e+04 </wgt>
<wgt id='1394'> +7.3338575e+04 </wgt>
<wgt id='1395'> +7.2953197e+04 </wgt>
<wgt id='1396'> +7.4522542e+04 </wgt>
<wgt id='1397'> +7.3781669e+04 </wgt>
<wgt id='1398'> +7.4785185e+04 </wgt>
<wgt id='1399'> +7.2810599e+04 </wgt>
<wgt id='1400'> +7.3834698e+04 </wgt>
<wgt id='1401'> +7.2081550e+04 </wgt>
<wgt id='1402'> +7.3583730e+04 </wgt>
<wgt id='1403'> +7.5662354e+04 </wgt>
<wgt id='1404'> +7.4323605e+04 </wgt>
<wgt id='1405'> +6.9825610e+04 </wgt>
<wgt id='1406'> +7.2749316e+04 </wgt>
<wgt id='1407'> +7.5170136e+04 </wgt>
<wgt id='1408'> +7.4220138e+04 </wgt>
<wgt id='1409'> +7.2298593e+04 </wgt>
<wgt id='1410'> +7.4035422e+04 </wgt>
<wgt id='1411'> +7.3640616e+04 </wgt>
<wgt id='1412'> +7.3701351e+04 </wgt>
<wgt id='1413'> +7.3906832e+04 </wgt>
<wgt id='1414'> +6.9680130e+04 </wgt>
<wgt id='1415'> +7.1150074e+04 </wgt>
<wgt id='1416'> +7.2755544e+04 </wgt>
<wgt id='1417'> +7.1608302e+04 </wgt>
<wgt id='1418'> +7.6168926e+04 </wgt>
<wgt id='1419'> +7.3407094e+04 </wgt>
<wgt id='1420'> +7.1260420e+04 </wgt>
<wgt id='1421'> +7.2856193e+04 </wgt>
<wgt id='1422'> +7.2990513e+04 </wgt>
<wgt id='1423'> +7.3821919e+04 </wgt>
<wgt id='1424'> +7.2098859e+04 </wgt>
<wgt id='1425'> +7.3637970e+04 </wgt>
<wgt id='1426'> +7.2618948e+04 </wgt>
<wgt id='1427'> +7.3541472e+04 </wgt>
<wgt id='1428'> +7.4367209e+04 </wgt>
<wgt id='1429'> +7.2875144e+04 </wgt>
<wgt id='1430'> +7.3229731e+04 </wgt>
<wgt id='1431'> +7.3052985e+04 </wgt>
<wgt id='1432'> +7.3379896e+04 </wgt>
<wgt id='1433'> +7.2991190e+04 </wgt>
<wgt id='1434'> +7.3035659e+04 </wgt>
<wgt id='1435'> +7.2745305e+04 </wgt>
<wgt id='1436'> +7.2410844e+04 </wgt>
<wgt id='1437'> +7.3382122e+04 </wgt>
<wgt id='1438'> +7.3133009e+04 </wgt>
<wgt id='1439'> +7.2303998e+04 </wgt>
<wgt id='1440'> +7.2966204e+04 </wgt>
<wgt id='1441'> +7.2803432e+04 </wgt>
<wgt id='1442'> +7.2845623e+04 </wgt>
<wgt id='1443'> +7.2873249e+04 </wgt>
<wgt id='1444'> +7.2606997e+04 </wgt>
<wgt id='1445'> +7.2481227e+04 </wgt>
<wgt id='1446'> +7.3183148e+04 </wgt>
<wgt id='1447'> +7.2848354e+04 </wgt>
<wgt id='1448'> +7.3160674e+04 </wgt>
<wgt id='1449'> +7.3071073e+04 </wgt>
<wgt id='1450'> +7.2985994e+04 </wgt>
<wgt id='1451'> +7.2875702e+04 </wgt>
<wgt id='1452'> +7.2775522e+04 </wgt>
<wgt id='1453'> +7.2891559e+04 </wgt>
<wgt id='1454'> +7.3003353e+04 </wgt>
<wgt id='1455'> +7.2982701e+04 </wgt>
<wgt id='1456'> +7.3006081e+04 </wgt>
<wgt id='1457'> +7.2810259e+04 </wgt>
<wgt id='1458'> +7.3074379e+04 </wgt>
<wgt id='1459'> +7.3075174e+04 </wgt>
<wgt id='1460'> +7.2915069e+04 </wgt>
<wgt id='1461'> +7.3096202e+04 </wgt>
<wgt id='1462'> +7.3023402e+04 </wgt>
<wgt id='1463'> +7.3007668e+04 </wgt>
<wgt id='1464'> +7.2935176e+04 </wgt>
<wgt id='1465'> +7.3059462e+04 </wgt>
<wgt id='1466'> +7.2965169e+04 </wgt>
<wgt id='1467'> +7.3044898e+04 </wgt>
<wgt id='1468'> +7.2997780e+04 </wgt>
<wgt id='1469'> +7.3123630e+04 </wgt>
<wgt id='1470'> +7.3086664e+04 </wgt>
<wgt id='1471'> +7.3056754e+04 </wgt>
<wgt id='1472'> +7.2997270e+04 </wgt>
<wgt id='1473'> +7.3077091e+04 </wgt>
<wgt id='1474'> +7.3074101e+04 </wgt>
<wgt id='1475'> +7.3083477e+04 </wgt>
<wgt id='1476'> +7.3113990e+04 </wgt>
<wgt id='1477'> +7.3036094e+04 </wgt>
<wgt id='1478'> +7.3119674e+04 </wgt>
<wgt id='1479'> +7.3025098e+04 </wgt>
<wgt id='1480'> +7.2977767e+04 </wgt>
<wgt id='1481'> +7.3064537e+04 </wgt>
<wgt id='1482'> +7.2875144e+04 </wgt>
<wgt id='1483'> +7.3229731e+04 </wgt>
<wgt id='1484'> +7.4360328e+04 </wgt>
<wgt id='1485'> +7.4674433e+04 </wgt>
<wgt id='1486'> +7.5997151e+04 </wgt>
<wgt id='1487'> +7.3698768e+04 </wgt>
<wgt id='1488'> +7.4723322e+04 </wgt>
<wgt id='1489'> +7.3828220e+04 </wgt>
<wgt id='1490'> +7.1059621e+04 </wgt>
<wgt id='1491'> +7.4226481e+04 </wgt>
<wgt id='1492'> +7.2359071e+04 </wgt>
<wgt id='1493'> +7.5139849e+04 </wgt>
<wgt id='1494'> +7.4624345e+04 </wgt>
<wgt id='1495'> +7.1442432e+04 </wgt>
<wgt id='1496'> +7.1782306e+04 </wgt>
<wgt id='1497'> +7.2183039e+04 </wgt>
<wgt id='1498'> +7.6052876e+04 </wgt>
<wgt id='1499'> +7.5857336e+04 </wgt>
<wgt id='1500'> +7.2820875e+04 </wgt>
<wgt id='1501'> +7.3139150e+04 </wgt>
<wgt id='1502'> +7.4940221e+04 </wgt>
<wgt id='1503'> +7.3658627e+04 </wgt>
<wgt id='1504'> +7.4259752e+04 </wgt>
<wgt id='1505'> +7.5046172e+04 </wgt>
<wgt id='1506'> +7.3827413e+04 </wgt>
<wgt id='1507'> +7.3251118e+04 </wgt>
<wgt id='1508'> +7.2312410e+04 </wgt>
<wgt id='1509'> +7.6752902e+04 </wgt>
<wgt id='1510'> +7.8110993e+04 </wgt>
<wgt id='1511'> +7.5954086e+04 </wgt>
<wgt id='1512'> +7.3807944e+04 </wgt>
<wgt id='1513'> +7.3215201e+04 </wgt>
<wgt id='1514'> +7.3632122e+04 </wgt>
<wgt id='1515'> +7.4304766e+04 </wgt>
<wgt id='1516'> +7.4418447e+04 </wgt>
<wgt id='1517'> +7.5420583e+04 </wgt>
<wgt id='1518'> +7.4435893e+04 </wgt>
<wgt id='1519'> +7.4034965e+04 </wgt>
<wgt id='1520'> +7.6101026e+04 </wgt>
<wgt id='1521'> +7.3682513e+04 </wgt>
<wgt id='1522'> +7.5373313e+04 </wgt>
<wgt id='1523'> +7.4477689e+04 </wgt>
<wgt id='1524'> +7.5634956e+04 </wgt>
<wgt id='1525'> +7.3881436e+04 </wgt>
<wgt id='1526'> +7.3535615e+04 </wgt>
<wgt id='1527'> +7.4581273e+04 </wgt>
<wgt id='1528'> +7.4744458e+04 </wgt>
<wgt id='1529'> +7.4799994e+04 </wgt>
<wgt id='1530'> +7.3472938e+04 </wgt>
<wgt id='1531'> +7.5532342e+04 </wgt>
<wgt id='1532'> +7.3406818e+04 </wgt>
<wgt id='1533'> +7.6792465e+04 </wgt>
<wgt id='1534'> +7.4606757e+04 </wgt>
<wgt id='1535'> +7.5179311e+04 </wgt>
<wgt id='1536'> +7.3774699e+04 </wgt>
<wgt id='1537'> +7.5811141e+04 </wgt>
<wgt id='1538'> +7.4095979e+04 </wgt>
<wgt id='1539'> +7.4818066e+04 </wgt>
<wgt id='1540'> +7.5136919e+04 </wgt>
<wgt id='1541'> +7.4506684e+04 </wgt>
<wgt id='1542'> +7.4841486e+04 </wgt>
<wgt id='1543'> +7.5290847e+04 </wgt>
<wgt id='1544'> +7.4037745e+04 </wgt>
<wgt id='1545'> +7.4965510e+04 </wgt>
<wgt id='1546'> +7.2969929e+04 </wgt>
<wgt id='1547'> +7.4632439e+04 </wgt>
<wgt id='1548'> +7.4683192e+04 </wgt>
<wgt id='1549'> +7.6013231e+04 </wgt>
<wgt id='1550'> +7.6877706e+04 </wgt>
<wgt id='1551'> +7.5223755e+04 </wgt>
<wgt id='1552'> +7.4654920e+04 </wgt>
<wgt id='1553'> +7.5857523e+04 </wgt>
<wgt id='1554'> +7.4610570e+04 </wgt>
<wgt id='1555'> +7.3152037e+04 </wgt>
<wgt id='1556'> +7.1426844e+04 </wgt>
<wgt id='1557'> +7.3904122e+04 </wgt>
<wgt id='1558'> +7.4149154e+04 </wgt>
<wgt id='1559'> +7.5577348e+04 </wgt>
<wgt id='1560'> +7.5648213e+04 </wgt>
<wgt id='1561'> +7.6485927e+04 </wgt>
<wgt id='1562'> +7.4280028e+04 </wgt>
<wgt id='1563'> +7.5263842e+04 </wgt>
<wgt id='1564'> +7.4687458e+04 </wgt>
<wgt id='1565'> +7.5119204e+04 </wgt>
<wgt id='1566'> +7.2678436e+04 </wgt>
<wgt id='1567'> +7.5089231e+04 </wgt>
<wgt id='1568'> +7.4492538e+04 </wgt>
<wgt id='1569'> +7.4402990e+04 </wgt>
<wgt id='1570'> +7.5043128e+04 </wgt>
<wgt id='1571'> +7.3525558e+04 </wgt>
<wgt id='1572'> +7.2975638e+04 </wgt>
<wgt id='1573'> +7.4723097e+04 </wgt>
<wgt id='1574'> +7.1863144e+04 </wgt>
<wgt id='1575'> +7.2668383e+04 </wgt>
<wgt id='1576'> +7.4592835e+04 </wgt>
<wgt id='1577'> +7.1187743e+04 </wgt>
<wgt id='1578'> +7.5604591e+04 </wgt>
<wgt id='1579'> +7.1985986e+04 </wgt>
<wgt id='1580'> +7.4717379e+04 </wgt>
<wgt id='1581'> +7.6643122e+04 </wgt>
<wgt id='1582'> +7.4680135e+04 </wgt>
<wgt id='1583'> +7.4518840e+04 </wgt>
<wgt id='1584'> +7.1562235e+04 </wgt>
<wgt id='1585'> +7.1784836e+04 </wgt>
<wgt id='1586'> +6.3935969e+04 </wgt>
<wgt id='1587'> +7.2914532e+04 </wgt>
<wgt id='1588'> +7.2875144e+04 </wgt>
<wgt id='1589'> +7.2670368e+04 </wgt>
<wgt id='1590'> +7.2830228e+04 </wgt>
<wgt id='1591'> +7.3229731e+04 </wgt>
<wgt id='1592'> +7.2965819e+04 </wgt>
<wgt id='1593'> +7.5676656e+04 </wgt>
<wgt id='1594'> +7.4772627e+04 </wgt>
<wgt id='1595'> +7.5068746e+04 </wgt>
<wgt id='1596'> +7.5275659e+04 </wgt>
<wgt id='1597'> +7.6421102e+04 </wgt>
<wgt id='1598'> +7.4418822e+04 </wgt>
<wgt id='1599'> +7.6650722e+04 </wgt>
<wgt id='1600'> +7.4088512e+04 </wgt>
<wgt id='1601'> +7.7213829e+04 </wgt>
<wgt id='1602'> +7.3737817e+04 </wgt>
<wgt id='1603'> +7.7483533e+04 </wgt>
<wgt id='1604'> +7.6751502e+04 </wgt>
<wgt id='1605'> +7.5939107e+04 </wgt>
<wgt id='1606'> +7.4384787e+04 </wgt>
<wgt id='1607'> +7.6276764e+04 </wgt>
<wgt id='1608'> +7.4523328e+04 </wgt>
<wgt id='1609'> +7.5855339e+04 </wgt>
<wgt id='1610'> +7.6498272e+04 </wgt>
<wgt id='1611'> +7.4656249e+04 </wgt>
<wgt id='1612'> +7.7054279e+04 </wgt>
<wgt id='1613'> +7.3088376e+04 </wgt>
<wgt id='1614'> +7.5885407e+04 </wgt>
<wgt id='1615'> +7.5425091e+04 </wgt>
<wgt id='1616'> +7.5525536e+04 </wgt>
<wgt id='1617'> +7.5019949e+04 </wgt>
<wgt id='1618'> +7.5485343e+04 </wgt>
<wgt id='1619'> +7.6378890e+04 </wgt>
<wgt id='1620'> +7.5706831e+04 </wgt>
<wgt id='1621'> +7.5488643e+04 </wgt>
<wgt id='1622'> +7.5275488e+04 </wgt>
<wgt id='1623'> +7.4805094e+04 </wgt>
<wgt id='1624'> +7.6351334e+04 </wgt>
<wgt id='1625'> +7.4060113e+04 </wgt>
<wgt id='1626'> +7.4475215e+04 </wgt>
<wgt id='1627'> +7.6413599e+04 </wgt>
<wgt id='1628'> +7.6054767e+04 </wgt>
<wgt id='1629'> +7.5522283e+04 </wgt>
<wgt id='1630'> +7.5008276e+04 </wgt>
<wgt id='1631'> +7.5672536e+04 </wgt>
<wgt id='1632'> +7.6142972e+04 </wgt>
<wgt id='1633'> +7.4818521e+04 </wgt>
<wgt id='1634'> +7.6348297e+04 </wgt>
<wgt id='1635'> +7.4825946e+04 </wgt>
<wgt id='1636'> +7.5459019e+04 </wgt>
<wgt id='1637'> +7.5930269e+04 </wgt>
<wgt id='1638'> +7.5625254e+04 </wgt>
<wgt id='1639'> +7.5713276e+04 </wgt>
<wgt id='1640'> +7.6478577e+04 </wgt>
<wgt id='1641'> +7.4645645e+04 </wgt>
<wgt id='1642'> +7.4662807e+04 </wgt>
<wgt id='1643'> +7.6399962e+04 </wgt>
<wgt id='1644'> +7.6712600e+04 </wgt>
<wgt id='1645'> +7.4085806e+04 </wgt>
<wgt id='1646'> +7.5869990e+04 </wgt>
<wgt id='1647'> +7.5919566e+04 </wgt>
<wgt id='1648'> +7.5716322e+04 </wgt>
<wgt id='1649'> +7.5555871e+04 </wgt>
<wgt id='1650'> +7.6292885e+04 </wgt>
<wgt id='1651'> +7.4814364e+04 </wgt>
<wgt id='1652'> +7.5169175e+04 </wgt>
<wgt id='1653'> +7.5419527e+04 </wgt>
<wgt id='1654'> +7.5947339e+04 </wgt>
<wgt id='1655'> +7.6236544e+04 </wgt>
<wgt id='1656'> +7.7274222e+04 </wgt>
<wgt id='1657'> +7.6749845e+04 </wgt>
<wgt id='1658'> +7.6407396e+04 </wgt>
<wgt id='1659'> +7.8221918e+04 </wgt>
<wgt id='1660'> +7.7608001e+04 </wgt>
<wgt id='1661'> +7.7889334e+04 </wgt>
<wgt id='1662'> +7.6234908e+04 </wgt>
<wgt id='1663'> +7.6090098e+04 </wgt>
<wgt id='1664'> +7.6745370e+04 </wgt>
<wgt id='1665'> +7.6381754e+04 </wgt>
<wgt id='1666'> +7.7812716e+04 </wgt>
<wgt id='1667'> +7.7048236e+04 </wgt>
<wgt id='1668'> +7.7589433e+04 </wgt>
<wgt id='1669'> +7.8346680e+04 </wgt>
<wgt id='1670'> +7.5902756e+04 </wgt>
<wgt id='1671'> +7.7945888e+04 </wgt>
<wgt id='1672'> +7.7211476e+04 </wgt>
<wgt id='1673'> +7.7528447e+04 </wgt>
<wgt id='1674'> +7.7652977e+04 </wgt>
<wgt id='1675'> +7.8314768e+04 </wgt>
<wgt id='1676'> +7.6172133e+04 </wgt>
<wgt id='1677'> +7.7326482e+04 </wgt>
<wgt id='1678'> +7.7954754e+04 </wgt>
<wgt id='1679'> +7.6491729e+04 </wgt>
<wgt id='1680'> +7.8699591e+04 </wgt>
<wgt id='1681'> +7.7917808e+04 </wgt>
<wgt id='1682'> +7.6032300e+04 </wgt>
<wgt id='1683'> +7.7053942e+04 </wgt>
<wgt id='1684'> +7.7359424e+04 </wgt>
<wgt id='1685'> +7.7699254e+04 </wgt>
<wgt id='1686'> +7.6249921e+04 </wgt>
<wgt id='1687'> +7.7775334e+04 </wgt>
<wgt id='1688'> +7.6245898e+04 </wgt>
<wgt id='1689'> +7.6772588e+04 </wgt>
<wgt id='1690'> +7.8601502e+04 </wgt>
<wgt id='1691'> +7.7504491e+04 </wgt>
<wgt id='1692'> +7.6711921e+04 </wgt>
<wgt id='1693'> +7.8904982e+04 </wgt>
<wgt id='1694'> +7.6381193e+04 </wgt>
<wgt id='1695'> +7.6796271e+04 </wgt>
<wgt id='1696'> +7.7222714e+04 </wgt>
<wgt id='1697'> +7.7863094e+04 </wgt>
<wgt id='1698'> +7.6533219e+04 </wgt>
<wgt id='1699'> +7.5923957e+04 </wgt>
<wgt id='1700'> +7.8744317e+04 </wgt>
<wgt id='1701'> +7.5720650e+04 </wgt>
<wgt id='1702'> +7.9069461e+04 </wgt>
<wgt id='1703'> +7.7492685e+04 </wgt>
<wgt id='1704'> +7.7801330e+04 </wgt>
<wgt id='1705'> +7.7465689e+04 </wgt>
<wgt id='1706'> +7.7197873e+04 </wgt>
<wgt id='1707'> +7.5617971e+04 </wgt>
<wgt id='1708'> +7.8668869e+04 </wgt>
<wgt id='1709'> +7.7624986e+04 </wgt>
<wgt id='1710'> +7.7047071e+04 </wgt>
<wgt id='1711'> +7.6825280e+04 </wgt>
<wgt id='1712'> +7.6951097e+04 </wgt>
<wgt id='1713'> +7.7423465e+04 </wgt>
<wgt id='1714'> +7.6908904e+04 </wgt>
<wgt id='1715'> +7.4294438e+04 </wgt>
<wgt id='1716'> +7.7115170e+04 </wgt>
<wgt id='1717'> +7.0615585e+04 </wgt>
<wgt id='1718'> +7.0489887e+04 </wgt>
<wgt id='1719'> +7.0773731e+04 </wgt>
<wgt id='1720'> +7.0537892e+04 </wgt>
<wgt id='1721'> +7.0686593e+04 </wgt>
<wgt id='1722'> +7.0521143e+04 </wgt>
<wgt id='1723'> +7.0770359e+04 </wgt>
<wgt id='1724'> +7.0998964e+04 </wgt>
<wgt id='1725'> +7.0304384e+04 </wgt>
<wgt id='1726'> +7.0519836e+04 </wgt>
<wgt id='1727'> +7.0713830e+04 </wgt>
<wgt id='1728'> +6.9527406e+04 </wgt>
<wgt id='1729'> +7.1677164e+04 </wgt>
<wgt id='1730'> +7.0955781e+04 </wgt>
<wgt id='1731'> +7.0373500e+04 </wgt>
<wgt id='1732'> +7.1114024e+04 </wgt>
<wgt id='1733'> +7.1114024e+04 </wgt>
<wgt id='1734'> +7.0269939e+04 </wgt>
<wgt id='1735'> +7.0847002e+04 </wgt>
<wgt id='1736'> +7.0225936e+04 </wgt>
<wgt id='1737'> +7.1157830e+04 </wgt>
<wgt id='1738'> +7.0871467e+04 </wgt>
<wgt id='1739'> +7.0118825e+04 </wgt>
<wgt id='1740'> +7.0521731e+04 </wgt>
<wgt id='1741'> +7.0834434e+04 </wgt>
<wgt id='1742'> +7.0191603e+04 </wgt>
<wgt id='1743'> +7.1096499e+04 </wgt>
<wgt id='1744'> +7.0884510e+04 </wgt>
<wgt id='1745'> +6.9881141e+04 </wgt>
<wgt id='1746'> +7.0327728e+04 </wgt>
<wgt id='1747'> +7.0753350e+04 </wgt>
<wgt id='1748'> +7.0868997e+04 </wgt>
<wgt id='1749'> +6.9789822e+04 </wgt>
<wgt id='1750'> +7.0698768e+04 </wgt>
<wgt id='1751'> +7.0528591e+04 </wgt>
<wgt id='1752'> +7.0462124e+04 </wgt>
<wgt id='1753'> +7.0829939e+04 </wgt>
<wgt id='1754'> +7.0987640e+04 </wgt>
<wgt id='1755'> +7.0409591e+04 </wgt>
<wgt id='1756'> +7.0109452e+04 </wgt>
<wgt id='1757'> +7.1861571e+04 </wgt>
<wgt id='1758'> +7.0854803e+04 </wgt>
<wgt id='1759'> +7.0214033e+04 </wgt>
<wgt id='1760'> +7.0865651e+04 </wgt>
<wgt id='1761'> +7.0390912e+04 </wgt>
<wgt id='1762'> +7.0535018e+04 </wgt>
<wgt id='1763'> +7.0598001e+04 </wgt>
<wgt id='1764'> +7.0533063e+04 </wgt>
<wgt id='1765'> +7.0979761e+04 </wgt>
<wgt id='1766'> +7.0572290e+04 </wgt>
<wgt id='1767'> +7.0708071e+04 </wgt>
<wgt id='1768'> +7.0577989e+04 </wgt>
<wgt id='1769'> +7.0659730e+04 </wgt>
<wgt id='1770'> +7.0333435e+04 </wgt>
<wgt id='1771'> +7.0880860e+04 </wgt>
<wgt id='1772'> +7.0747790e+04 </wgt>
<wgt id='1773'> +7.0630434e+04 </wgt>
<wgt id='1774'> +6.9672548e+04 </wgt>
<wgt id='1775'> +7.1219085e+04 </wgt>
<wgt id='1776'> +7.0049964e+04 </wgt>
<wgt id='1777'> +7.0888800e+04 </wgt>
<wgt id='1778'> +7.0349312e+04 </wgt>
<wgt id='1779'> +7.0536220e+04 </wgt>
<wgt id='1780'> +7.1244108e+04 </wgt>
<wgt id='1781'> +7.0833211e+04 </wgt>
<wgt id='1782'> +7.0615585e+04 </wgt>
<wgt id='1783'> +7.0737899e+04 </wgt>
<wgt id='1784'> +7.2713924e+04 </wgt>
<wgt id='1785'> +7.2602707e+04 </wgt>
<wgt id='1786'> +7.0505780e+04 </wgt>
<wgt id='1787'> +7.2695557e+04 </wgt>
<wgt id='1788'> +7.2983192e+04 </wgt>
<wgt id='1789'> +7.2829417e+04 </wgt>
<wgt id='1790'> +7.2513596e+04 </wgt>
<wgt id='1791'> +7.2690108e+04 </wgt>
<wgt id='1792'> +7.1944820e+04 </wgt>
<wgt id='1793'> +7.2854169e+04 </wgt>
<wgt id='1794'> +7.3239553e+04 </wgt>
<wgt id='1795'> +7.2287828e+04 </wgt>
<wgt id='1796'> +7.2710775e+04 </wgt>
<wgt id='1797'> +7.2786320e+04 </wgt>
<wgt id='1798'> +7.2799016e+04 </wgt>
<wgt id='1799'> +7.3439879e+04 </wgt>
<wgt id='1800'> +7.3355187e+04 </wgt>
<wgt id='1801'> +7.3335076e+04 </wgt>
<wgt id='1802'> +7.3354594e+04 </wgt>
<wgt id='1803'> +7.3110279e+04 </wgt>
<wgt id='1804'> +7.2326275e+04 </wgt>
<wgt id='1805'> +7.2148601e+04 </wgt>
<wgt id='1806'> +7.2694034e+04 </wgt>
<wgt id='1807'> +7.2770858e+04 </wgt>
<wgt id='1808'> +7.2827346e+04 </wgt>
<wgt id='1809'> +7.1971513e+04 </wgt>
<wgt id='1810'> +7.2531953e+04 </wgt>
<wgt id='1811'> +7.2657454e+04 </wgt>
<wgt id='1812'> +7.2598683e+04 </wgt>
<wgt id='1813'> +7.1722233e+04 </wgt>
<wgt id='1814'> +7.2742432e+04 </wgt>
<wgt id='1815'> +7.2603154e+04 </wgt>
<wgt id='1816'> +7.2706351e+04 </wgt>
<wgt id='1817'> +7.2576404e+04 </wgt>
<wgt id='1818'> +7.2736704e+04 </wgt>
<wgt id='1819'> +7.2784121e+04 </wgt>
<wgt id='1820'> +7.2587860e+04 </wgt>
<wgt id='1821'> +7.2533646e+04 </wgt>
<wgt id='1822'> +7.2751073e+04 </wgt>
<wgt id='1823'> +7.2544435e+04 </wgt>
<wgt id='1824'> +7.3346318e+04 </wgt>
<wgt id='1825'> +7.2399295e+04 </wgt>
<wgt id='1826'> +7.3512610e+04 </wgt>
<wgt id='1827'> +7.2958289e+04 </wgt>
<wgt id='1828'> +7.3110510e+04 </wgt>
<wgt id='1829'> +7.2789256e+04 </wgt>
<wgt id='1830'> +7.2945578e+04 </wgt>
<wgt id='1831'> +7.2952994e+04 </wgt>
<wgt id='1832'> +7.3021787e+04 </wgt>
<wgt id='1833'> +7.2877211e+04 </wgt>
<wgt id='1834'> +7.2570820e+04 </wgt>
<wgt id='1835'> +7.3312133e+04 </wgt>
<wgt id='1836'> +7.3269958e+04 </wgt>
<wgt id='1837'> +7.2618952e+04 </wgt>
<wgt id='1838'> +7.3208081e+04 </wgt>
<wgt id='1839'> +7.2666633e+04 </wgt>
<wgt id='1840'> +7.2780999e+04 </wgt>
<wgt id='1841'> +7.3123756e+04 </wgt>
<wgt id='1842'> +7.3010947e+04 </wgt>
<wgt id='1843'> +7.3084509e+04 </wgt>
<wgt id='1844'> +7.2688112e+04 </wgt>
<wgt id='1845'> +7.3187329e+04 </wgt>
<wgt id='1846'> +7.2447367e+04 </wgt>
<wgt id='1847'> +7.3374848e+04 </wgt>
<wgt id='1848'> +7.2955735e+04 </wgt>
<wgt id='1849'> +7.2840146e+04 </wgt>
<wgt id='1850'> +7.3572735e+04 </wgt>
<wgt id='1851'> +7.2339114e+04 </wgt>
<wgt id='1852'> +7.4089043e+04 </wgt>
<wgt id='1853'> +7.1734296e+04 </wgt>
<wgt id='1854'> +7.3915021e+04 </wgt>
<wgt id='1855'> +7.2061069e+04 </wgt>
<wgt id='1856'> +7.1774343e+04 </wgt>
<wgt id='1857'> +7.1760881e+04 </wgt>
<wgt id='1858'> +7.1680933e+04 </wgt>
<wgt id='1859'> +7.1752204e+04 </wgt>
<wgt id='1860'> +7.1776215e+04 </wgt>
<wgt id='1861'> +7.1840543e+04 </wgt>
<wgt id='1862'> +7.1375580e+04 </wgt>
<wgt id='1863'> +7.1870201e+04 </wgt>
<wgt id='1864'> +7.1639140e+04 </wgt>
<wgt id='1865'> +7.1508732e+04 </wgt>
<wgt id='1866'> +7.1700103e+04 </wgt>
<wgt id='1867'> +7.1722309e+04 </wgt>
<wgt id='1868'> +7.1826139e+04 </wgt>
<wgt id='1869'> +7.1902607e+04 </wgt>
<wgt id='1870'> +7.1567536e+04 </wgt>
<wgt id='1871'> +7.1660910e+04 </wgt>
<wgt id='1872'> +7.1563622e+04 </wgt>
<wgt id='1873'> +7.1713835e+04 </wgt>
<wgt id='1874'> +7.1629872e+04 </wgt>
<wgt id='1875'> +7.1848906e+04 </wgt>
<wgt id='1876'> +7.1698675e+04 </wgt>
<wgt id='1877'> +7.1393321e+04 </wgt>
<wgt id='1878'> +7.1697221e+04 </wgt>
<wgt id='1879'> +7.2357857e+04 </wgt>
<wgt id='1880'> +7.2123367e+04 </wgt>
<wgt id='1881'> +7.1691574e+04 </wgt>
<wgt id='1882'> +7.1672315e+04 </wgt>
<wgt id='1883'> +7.1988433e+04 </wgt>
<wgt id='1884'> +7.0893551e+04 </wgt>
<wgt id='1885'> +7.1165856e+04 </wgt>
<wgt id='1886'> +7.5832204e+04 </wgt>
<wgt id='1887'> +7.8026500e+04 </wgt>
<wgt id='1888'> +6.3985227e+04 </wgt>
<wgt id='1889'> +7.4619721e+04 </wgt>
</rwgt>
</event>
<event npLO=" -1 " npNLO=" 0 ">
 5      1 +7.4519530e+04 1.75863250e+01 7.55820760e-03 1.20543480e-01
       -2 -1    0    0    0  501 +0.0000000000e+00 +0.0000000000e+00 +6.7571956450e+01 6.7571956450e+01 0.0000000000e+00 0.0000e+00 1.0000e+00
        1 -1    0    0  501    0 +0.0000000000e+00 +0.0000000000e+00 -2.3208037091e+01 2.3208037091e+01 0.0000000000e+00 0.0000e+00 -1.0000e+00
      -24  2    1    2    0    0 +0.0000000000e+00 +0.0000000000e+00 +4.4363919359e+01 9.0779993540e+01 7.9201325029e+01 0.0000e+00 0.0000e+00
       11  1    3    3    0    0 +5.3204469939e+00 -1.6918635483e+01 -1.8401443835e+01 2.5557005264e+01 0.0000000000e+00 0.0000e+00 -1.0000e+00
      -12  1    3    3    0    0 -5.3204469939e+00 +1.6918635483e+01 +6.2765363194e+01 6.5222988277e+01 0.0000000000e+00 0.0000e+00 1.0000e+00
#aMCatNLO 1  0  0  2  1 0.83996032E+01 0.00000000E+00 -9  5  0 0.00000000E+00 0.00000000E+00 0.00000000E+00 0.00000000E+00 0.00000000E+00
<rwgt>
<wgt id='1001'> +7.4519530e+04 </wgt>
<wgt id='1002'> +7.2043763e+04 </wgt>
<wgt id='1003'> +7.7605618e+04 </wgt>
<wgt id='1004'> +8.2575372e+04 </wgt>
<wgt id='1005'> +7.9879352e+04 </wgt>
<wgt id='1006'> +8.5936006e+04 </wgt>
<wgt id='1007'> +6.5504266e+04 </wgt>
<wgt id='1008'> +6.3293707e+04 </wgt>
<wgt id='1009'> +6.8259781e+04 </wgt>
<wgt id='1010'> +7.4519530e+04 </wgt>
<wgt id='1011'> +7.4398052e+04 </wgt>
<wgt id='1012'> +7.4445119e+04 </wgt>
<wgt id='1013'> +7.4072483e+04 </wgt>
<wgt id='1014'> +7.4856398e+04 </wgt>
<wgt id='1015'> +7.4211521e+04 </wgt>
<wgt id='1016'> +7.4476060e+04 </wgt>
<wgt id='1017'> +7.4626017e+04 </wgt>
<wgt id='1018'> +7.4214368e+04 </wgt>
<wgt id='1019'> +7.5002958e+04 </wgt>
<wgt id='1020'> +7.4045720e+04 </wgt>
<wgt id='1021'> +7.4473672e+04 </wgt>
<wgt id='1022'> +7.4687571e+04 </wgt>
<wgt id='1023'> +7.4702870e+04 </wgt>
<wgt id='1024'> +7.4768821e+04 </wgt>
<wgt id='1025'> +7.5388623e+04 </wgt>
<wgt id='1026'> +7.4184880e+04 </wgt>
<wgt id='1027'> +7.4348403e+04 </wgt>
<wgt id='1028'> +7.4013017e+04 </wgt>
<wgt id='1029'> +7.4590340e+04 </wgt>
<wgt id='1030'> +7.4780032e+04 </wgt>
<wgt id='1031'> +7.4339071e+04 </wgt>
<wgt id='1032'> +7.4896611e+04 </wgt>
<wgt id='1033'> +7.4071990e+04 </wgt>
<wgt id='1034'> +7.3999396e+04 </wgt>
<wgt id='1035'> +7.4179472e+04 </wgt>
<wgt id='1036'> +7.4311667e+04 </wgt>
<wgt id='1037'> +7.5089829e+04 </wgt>
<wgt id='1038'> +7.4843692e+04 </wgt>
<wgt id='1039'> +7.4470887e+04 </wgt>
<wgt id='1040'> +7.4622955e+04 </wgt>
<wgt id='1041'> +7.4847386e+04 </wgt>
<wgt id='1042'> +7.4314342e+04 </wgt>
<wgt id='1043'> +7.4560375e+04 </wgt>
<wgt id='1044'> +7.4586634e+04 </wgt>
<wgt id='1045'> +7.4435582e+04 </wgt>
<wgt id='1046'> +7.4412618e+04 </wgt>
<wgt id='1047'> +7.4714631e+04 </wgt>
<wgt id='1048'> +7.4791020e+04 </wgt>
<wgt id='1049'> +7.4538680e+04 </wgt>
<wgt id='1050'> +7.4723114e+04 </wgt>
<wgt id='1051'> +7.4685721e+04 </wgt>
<wgt id='1052'> +7.4624773e+04 </wgt>
<wgt id='1053'> +7.4617642e+04 </wgt>
<wgt id='1054'> +7.4616183e+04 </wgt>
<wgt id='1055'> +7.4556593e+04 </wgt>
<wgt id='1056'> +7.4447697e+04 </wgt>
<wgt id='1057'> +7.4546186e+04 </wgt>
<wgt id='1058'> +7.4539370e+04 </wgt>
<wgt id='1059'> +7.4480279e+04 </wgt>
<wgt id='1060'> +7.4482677e+04 </wgt>
<wgt id='1061'> +7.4503748e+04 </wgt>
<wgt id='1062'> +7.4551881e+04 </wgt>
<wgt id='1063'> +7.4479066e+04 </wgt>
<wgt id='1064'> +7.4459928e+04 </wgt>
<wgt id='1065'> +7.4577691e+04 </wgt>
<wgt id='1066'> +7.4680514e+04 </wgt>
<wgt id='1067'> +7.4548864e+04 </wgt>
<wgt id='1068'> +7.4425694e+04 </wgt>
<wgt id='1069'> +7.4718005e+04 </wgt>
<wgt id='1070'> +7.4479552e+04 </wgt>
<wgt id='1071'> +7.4425363e+04 </wgt>
<wgt id='1072'> +7.4543334e+04 </wgt>
<wgt id='1073'> +7.4642013e+04 </wgt>
<wgt id='1074'> +7.4646823e+04 </wgt>
<wgt id='1075'> +7.4505118e+04 </wgt>
<wgt id='1076'> +7.4603280e+04 </wgt>
<wgt id='1077'> +7.4590992e+04 </wgt>
<wgt id='1078'> +7.4360156e+04 </wgt>
<wgt id='1079'> +7.4527593e+04 </wgt>
<wgt id='1080'> +7.4508954e+04 </wgt>
<wgt id='1081'> +7.4584926e+04 </wgt>
<wgt id='1082'> +7.4573630e+04 </wgt>
<wgt id='1083'> +7.4599342e+04 </wgt>
<wgt id='1084'> +7.4566500e+04 </wgt>
<wgt id='1085'> +7.4516163e+04 </wgt>
<wgt id='1086'> +7.4493110e+04 </wgt>
<wgt id='1087'> +7.4510365e+04 </wgt>
<wgt id='1088'> +7.4528484e+04 </wgt>
<wgt id='1089'> +7.4428869e+04 </wgt>
<wgt id='1090'> +7.4506505e+04 </wgt>
<wgt id='1091'> +7.4487299e+04 </wgt>
<wgt id='1092'> +7.4505956e+04 </wgt>
<wgt id='1093'> +7.4575844e+04 </wgt>
<wgt id='1094'> +7.4504321e+04 </wgt>
<wgt id='1095'> +7.4484697e+04 </wgt>
<wgt id='1096'> +7.4448900e+04 </wgt>
<wgt id='1097'> +7.4557255e+04 </wgt>
<wgt id='1098'> +7.4488569e+04 </wgt>
<wgt id='1099'> +7.4574253e+04 </wgt>
<wgt id='1100'> +7.4500259e+04 </wgt>
<wgt id='1101'> +7.4511723e+04 </wgt>
<wgt id='1102'> +7.4555785e+04 </wgt>
<wgt id='1103'> +7.4504607e+04 </wgt>
<wgt id='1104'> +7.4501930e+04 </wgt>
<wgt id='1105'> +7.4504549e+04 </wgt>
<wgt id='1106'> +7.4532290e+04 </wgt>
<wgt id='1107'> +7.4566443e+04 </wgt>
<wgt id='1108'> +7.4523419e+04 </wgt>
<wgt id='1109'> +7.4536051e+04 </wgt>
<wgt id='1110'> +7.4519527e+04 </wgt>
<wgt id='1111'> +7.4112810e+04 </wgt>
<wgt id='1112'> +7.5079637e+04 </wgt>
<wgt id='1113'> +7.4519527e+04 </wgt>
<wgt id='1114'> +8.0987607e+04 </wgt>
<wgt id='1115'> +7.4942007e+04 </wgt>
<wgt id='1116'> +7.1648833e+04 </wgt>
<wgt id='1117'> +7.3614950e+04 </wgt>
<wgt id='1118'> +7.3208991e+04 </wgt>
<wgt id='1119'> +7.9250934e+04 </wgt>
<wgt id='1120'> +7.5386745e+04 </wgt>
<wgt id='1121'> +7.0595445e+04 </wgt>
<wgt id='1122'> +7.1645661e+04 </wgt>
<wgt id='1123'> +7.3780053e+04 </wgt>
<wgt id='1124'> +7.4815078e+04 </wgt>
<wgt id='1125'> +7.1785675e+04 </wgt>
<wgt id='1126'> +7.3771643e+04 </wgt>
<wgt id='1127'> +7.4153337e+04 </wgt>
<wgt id='1128'> +7.4908627e+04 </wgt>
<wgt id='1129'> +7.5207636e+04 </wgt>
<wgt id='1130'> +7.6478993e+04 </wgt>
<wgt id='1131'> +7.2711313e+04 </wgt>
<wgt id='1132'> +7.5225340e+04 </wgt>
<wgt id='1133'> +7.0778889e+04 </wgt>
<wgt id='1134'> +7.2686189e+04 </wgt>
<wgt id='1135'> +7.6355043e+04 </wgt>
<wgt id='1136'> +7.6097512e+04 </wgt>
<wgt id='1137'> +7.1775912e+04 </wgt>
<wgt id='1138'> +7.2741640e+04 </wgt>
<wgt id='1139'> +7.5786395e+04 </wgt>
<wgt id='1140'> +7.7667536e+04 </wgt>
<wgt id='1141'> +7.3923074e+04 </wgt>
<wgt id='1142'> +7.4783088e+04 </wgt>
<wgt id='1143'> +7.7060445e+04 </wgt>
<wgt id='1144'> +7.7167937e+04 </wgt>
<wgt id='1145'> +7.4128242e+04 </wgt>
<wgt id='1146'> +7.7069906e+04 </wgt>
<wgt id='1147'> +7.0398507e+04 </wgt>
<wgt id='1148'> +7.5378355e+04 </wgt>
<wgt id='1149'> +7.4499170e+04 </wgt>
<wgt id='1150'> +7.4133660e+04 </wgt>
<wgt id='1151'> +7.3989380e+04 </wgt>
<wgt id='1152'> +7.4314082e+04 </wgt>
<wgt id='1153'> +7.5860889e+04 </wgt>
<wgt id='1154'> +7.5333175e+04 </wgt>
<wgt id='1155'> +7.5863267e+04 </wgt>
<wgt id='1156'> +7.6722204e+04 </wgt>
<wgt id='1157'> +7.7114053e+04 </wgt>
<wgt id='1158'> +7.5588500e+04 </wgt>
<wgt id='1159'> +7.6839859e+04 </wgt>
<wgt id='1160'> +7.6023965e+04 </wgt>
<wgt id='1161'> +7.2728128e+04 </wgt>
<wgt id='1162'> +7.7030255e+04 </wgt>
<wgt id='1163'> +7.5272415e+04 </wgt>
<wgt id='1164'> +7.2234353e+04 </wgt>
<wgt id='1165'> +7.3446248e+04 </wgt>
<wgt id='1166'> +7.4662124e+04 </wgt>
<wgt id='1167'> +7.5589765e+04 </wgt>
<wgt id='1168'> +7.4041222e+04 </wgt>
<wgt id='1169'> +7.4461743e+04 </wgt>
<wgt id='1170'> +7.6017580e+04 </wgt>
<wgt id='1171'> +7.3817152e+04 </wgt>
<wgt id='1172'> +7.5101209e+04 </wgt>
<wgt id='1173'> +7.5822506e+04 </wgt>
<wgt id='1174'> +7.6363986e+04 </wgt>
<wgt id='1175'> +7.3661821e+04 </wgt>
<wgt id='1176'> +7.4929487e+04 </wgt>
<wgt id='1177'> +7.1050706e+04 </wgt>
<wgt id='1178'> +7.6666415e+04 </wgt>
<wgt id='1179'> +7.7039882e+04 </wgt>
<wgt id='1180'> +7.5442153e+04 </wgt>
<wgt id='1181'> +7.7344885e+04 </wgt>
<wgt id='1182'> +7.5689812e+04 </wgt>
<wgt id='1183'> +7.3109060e+04 </wgt>
<wgt id='1184'> +7.3102963e+04 </wgt>
<wgt id='1185'> +7.5487296e+04 </wgt>
<wgt id='1186'> +7.0863813e+04 </wgt>
<wgt id='1187'> +7.1652424e+04 </wgt>
<wgt id='1188'> +7.3539569e+04 </wgt>
<wgt id='1189'> +7.6381303e+04 </wgt>
<wgt id='1190'> +7.1775460e+04 </wgt>
<wgt id='1191'> +7.4429256e+04 </wgt>
<wgt id='1192'> +7.4288627e+04 </wgt>
<wgt id='1193'> +7.6619468e+04 </wgt>
<wgt id='1194'> +7.3961639e+04 </wgt>
<wgt id='1195'> +7.5207636e+04 </wgt>
<wgt id='1196'> +7.5930842e+04 </wgt>
<wgt id='1197'> +7.2653548e+04 </wgt>
<wgt id='1198'> +7.3587649e+04 </wgt>
<wgt id='1199'> +7.7486336e+04 </wgt>
<wgt id='1200'> +7.0567729e+04 </wgt>
<wgt id='1201'> +7.7396359e+04 </wgt>
<wgt id='1202'> +7.0203080e+04 </wgt>
<wgt id='1203'> +7.3463822e+04 </wgt>
<wgt id='1204'> +7.2925633e+04 </wgt>
<wgt id='1205'> +7.1079182e+04 </wgt>
<wgt id='1206'> +7.3190373e+04 </wgt>
<wgt id='1207'> +7.5080095e+04 </wgt>
<wgt id='1208'> +7.2786483e+04 </wgt>
<wgt id='1209'> +7.5043882e+04 </wgt>
<wgt id='1210'> +7.6560867e+04 </wgt>
<wgt id='1211'> +7.4798263e+04 </wgt>
<wgt id='1212'> +7.3126705e+04 </wgt>
<wgt id='1213'> +7.3608392e+04 </wgt>
<wgt id='1214'> +7.4526687e+04 </wgt>
<wgt id='1215'> +7.3053400e+04 </wgt>
<wgt id='1216'> +7.3069890e+04 </wgt>
<wgt id='1217'> +7.3106567e+04 </wgt>
<wgt id='1218'> +7.3666062e+04 </wgt>
<wgt id='1219'> +7.4397509e+04 </wgt>
<wgt id='1220'> +7.4834925e+04 </wgt>
<wgt id='1221'> +7.5425209e+04 </wgt>
<wgt id='1222'> +7.5882351e+04 </wgt>
<wgt id='1223'> +7.3593300e+04 </wgt>
<wgt id='1224'> +7.3536818e+04 </wgt>
<wgt id='1225'> +7.3716547e+04 </wgt>
<wgt id='1226'> +7.3556000e+04 </wgt>
<wgt id='1227'> +7.4101607e+04 </wgt>
<wgt id='1228'> +7.3692826e+04 </wgt>
<wgt id='1229'> +7.3259142e+04 </wgt>
<wgt id='1230'> +7.3800793e+04 </wgt>
<wgt id='1231'> +7.3541523e+04 </wgt>
<wgt id='1232'> +7.3807679e+04 </wgt>
<wgt id='1233'> +7.2764585e+04 </wgt>
<wgt id='1234'> +7.3487900e+04 </wgt>
<wgt id='1235'> +7.3934156e+04 </wgt>
<wgt id='1236'> +7.3770081e+04 </wgt>
<wgt id='1237'> +7.3983024e+04 </wgt>
<wgt id='1238'> +7.2980301e+04 </wgt>
<wgt id='1239'> +7.4230864e+04 </wgt>
<wgt id='1240'> +7.3359334e+04 </wgt>
<wgt id='1241'> +7.3951442e+04 </wgt>
<wgt id='1242'> +7.3510741e+04 </wgt>
<wgt id='1243'> +7.3094356e+04 </wgt>
<wgt id='1244'> +7.4249443e+04 </wgt>
<wgt id='1245'> +7.3620016e+04 </wgt>
<wgt id='1246'> +7.3399540e+04 </wgt>
<wgt id='1247'> +7.3935870e+04 </wgt>
<wgt id='1248'> +7.3155284e+04 </wgt>
<wgt id='1249'> +7.3576009e+04 </wgt>
<wgt id='1250'> +7.3718082e+04 </wgt>
<wgt id='1251'> +7.3619175e+04 </wgt>
<wgt id='1252'> +7.3927303e+04 </wgt>
<wgt id='1253'> +7.3164959e+04 </wgt>
<wgt id='1254'> +7.3817754e+04 </wgt>
<wgt id='1255'> +7.3308297e+04 </wgt>
<wgt id='1256'> +7.3868033e+04 </wgt>
<wgt id='1257'> +7.3794975e+04 </wgt>
<wgt id='1258'> +7.3574373e+04 </wgt>
<wgt id='1259'> +7.3547434e+04 </wgt>
<wgt id='1260'> +7.3404492e+04 </wgt>
<wgt id='1261'> +7.3624159e+04 </wgt>
<wgt id='1262'> +7.3481778e+04 </wgt>
<wgt id='1263'> +7.3592687e+04 </wgt>
<wgt id='1264'> +7.3395120e+04 </wgt>
<wgt id='1265'> +7.3552338e+04 </wgt>
<wgt id='1266'> +7.3527003e+04 </wgt>
<wgt id='1267'> +7.3580332e+04 </wgt>
<wgt id='1268'> +7.3741313e+04 </wgt>
<wgt id='1269'> +7.3679314e+04 </wgt>
<wgt id='1270'> +7.3373939e+04 </wgt>
<wgt id='1271'> +7.3431017e+04 </wgt>
<wgt id='1272'> +7.3678355e+04 </wgt>
<wgt id='1273'> +7.3607189e+04 </wgt>
<wgt id='1274'> +7.3610696e+04 </wgt>
<wgt id='1275'> +7.3492960e+04 </wgt>
<wgt id='1276'> +7.3523887e+04 </wgt>
<wgt id='1277'> +7.3353628e+04 </wgt>
<wgt id='1278'> +7.3546300e+04 </wgt>
<wgt id='1279'> +7.3682638e+04 </wgt>
<wgt id='1280'> +7.3599466e+04 </wgt>
<wgt id='1281'> +7.3516225e+04 </wgt>
<wgt id='1282'> +7.3521046e+04 </wgt>
<wgt id='1283'> +7.3661542e+04 </wgt>
<wgt id='1284'> +7.3691215e+04 </wgt>
<wgt id='1285'> +7.3635534e+04 </wgt>
<wgt id='1286'> +7.3616562e+04 </wgt>
<wgt id='1287'> +7.3641999e+04 </wgt>
<wgt id='1288'> +7.3648668e+04 </wgt>
<wgt id='1289'> +7.3616116e+04 </wgt>
<wgt id='1290'> +7.3525595e+04 </wgt>
<wgt id='1291'> +7.3599509e+04 </wgt>
<wgt id='1292'> +7.3560990e+04 </wgt>
<wgt id='1293'> +7.3630422e+04 </wgt>
<wgt id='1294'> +7.3620404e+04 </wgt>
<wgt id='1295'> +7.3474553e+04 </wgt>
<wgt id='1296'> +7.3649305e+04 </wgt>
<wgt id='1297'> +7.3634467e+04 </wgt>
<wgt id='1298'> +7.3586166e+04 </wgt>
<wgt id='1299'> +7.3642492e+04 </wgt>
<wgt id='1300'> +7.3591412e+04 </wgt>
<wgt id='1301'> +7.3606803e+04 </wgt>
<wgt id='1302'> +7.3542190e+04 </wgt>
<wgt id='1303'> +7.3635439e+04 </wgt>
<wgt id='1304'> +7.3670966e+04 </wgt>
<wgt id='1305'> +7.3570925e+04 </wgt>
<wgt id='1306'> +7.3586180e+04 </wgt>
<wgt id='1307'> +7.3566023e+04 </wgt>
<wgt id='1308'> +7.3671398e+04 </wgt>
<wgt id='1309'> +7.3620468e+04 </wgt>
<wgt id='1310'> +7.3595265e+04 </wgt>
<wgt id='1311'> +7.3615425e+04 </wgt>
<wgt id='1312'> +7.3650228e+04 </wgt>
<wgt id='1313'> +7.3576228e+04 </wgt>
<wgt id='1314'> +7.3587649e+04 </wgt>
<wgt id='1315'> +7.3581820e+04 </wgt>
<wgt id='1316'> +7.3608443e+04 </wgt>
<wgt id='1317'> +7.3559033e+04 </wgt>
<wgt id='1318'> +7.3563081e+04 </wgt>
<wgt id='1319'> +7.3651271e+04 </wgt>
<wgt id='1320'> +7.3636203e+04 </wgt>
<wgt id='1321'> +7.3561155e+04 </wgt>
<wgt id='1322'> +7.3602059e+04 </wgt>
<wgt id='1323'> +7.3581836e+04 </wgt>
<wgt id='1324'> +7.3158298e+04 </wgt>
<wgt id='1325'> +7.4204015e+04 </wgt>
<wgt id='1326'> +7.0773743e+04 </wgt>
<wgt id='1327'> +6.7430175e+04 </wgt>
<wgt id='1328'> +7.4631290e+04 </wgt>
<wgt id='1329'> +7.5082388e+04 </wgt>
<wgt id='1330'> +7.4366819e+04 </wgt>
<wgt id='1331'> +7.5195494e+04 </wgt>
<wgt id='1332'> +7.5095569e+04 </wgt>
<wgt id='1333'> +7.5444861e+04 </wgt>
<wgt id='1334'> +7.5494682e+04 </wgt>
<wgt id='1335'> +7.3523642e+04 </wgt>
<wgt id='1336'> +7.5659894e+04 </wgt>
<wgt id='1337'> +7.4092993e+04 </wgt>
<wgt id='1338'> +7.4347695e+04 </wgt>
<wgt id='1339'> +7.4778831e+04 </wgt>
<wgt id='1340'> +7.4241619e+04 </wgt>
<wgt id='1341'> +7.2950623e+04 </wgt>
<wgt id='1342'> +7.4519302e+04 </wgt>
<wgt id='1343'> +7.4902983e+04 </wgt>
<wgt id='1344'> +7.5230094e+04 </wgt>
<wgt id='1345'> +7.4982399e+04 </wgt>
<wgt id='1346'> +7.3484381e+04 </wgt>
<wgt id='1347'> +7.5435567e+04 </wgt>
<wgt id='1348'> +7.5213332e+04 </wgt>
<wgt id='1349'> +7.4106379e+04 </wgt>
<wgt id='1350'> +7.4146508e+04 </wgt>
<wgt id='1351'> +7.5083153e+04 </wgt>
<wgt id='1352'> +7.4271893e+04 </wgt>
<wgt id='1353'> +7.6881559e+04 </wgt>
<wgt id='1354'> +7.4840485e+04 </wgt>
<wgt id='1355'> +7.3405518e+04 </wgt>
<wgt id='1356'> +7.3186982e+04 </wgt>
<wgt id='1357'> +7.4769722e+04 </wgt>
<wgt id='1358'> +7.4637069e+04 </wgt>
<wgt id='1359'> +7.3923484e+04 </wgt>
<wgt id='1360'> +7.5017133e+04 </wgt>
<wgt id='1361'> +7.6639148e+04 </wgt>
<wgt id='1362'> +7.4001860e+04 </wgt>
<wgt id='1363'> +7.4854412e+04 </wgt>
<wgt id='1364'> +7.4234396e+04 </wgt>
<wgt id='1365'> +7.5794237e+04 </wgt>
<wgt id='1366'> +7.4462018e+04 </wgt>
<wgt id='1367'> +7.4840672e+04 </wgt>
<wgt id='1368'> +7.4597903e+04 </wgt>
<wgt id='1369'> +7.6378685e+04 </wgt>
<wgt id='1370'> +7.2767129e+04 </wgt>
<wgt id='1371'> +7.3921745e+04 </wgt>
<wgt id='1372'> +7.5022922e+04 </wgt>
<wgt id='1373'> +7.3493241e+04 </wgt>
<wgt id='1374'> +7.4374332e+04 </wgt>
<wgt id='1375'> +7.4415581e+04 </wgt>
<wgt id='1376'> +7.4092937e+04 </wgt>
<wgt id='1377'> +7.3510804e+04 </wgt>
<wgt id='1378'> +7.4109948e+04 </wgt>
<wgt id='1379'> +7.4592058e+04 </wgt>
<wgt id='1380'> +7.5704145e+04 </wgt>
<wgt id='1381'> +7.3600681e+04 </wgt>
<wgt id='1382'> +7.5314455e+04 </wgt>
<wgt id='1383'> +7.4308040e+04 </wgt>
<wgt id='1384'> +7.4957978e+04 </wgt>
<wgt id='1385'> +7.4379430e+04 </wgt>
<wgt id='1386'> +7.4115169e+04 </wgt>
<wgt id='1387'> +7.2303005e+04 </wgt>
<wgt id='1388'> +7.3811531e+04 </wgt>
<wgt id='1389'> +7.3550272e+04 </wgt>
<wgt id='1390'> +7.4639978e+04 </wgt>
<wgt id='1391'> +7.4684304e+04 </wgt>
<wgt id='1392'> +7.3492207e+04 </wgt>
<wgt id='1393'> +7.3692629e+04 </wgt>
<wgt id='1394'> +7.5794237e+04 </wgt>
<wgt id='1395'> +7.4688192e+04 </wgt>
<wgt id='1396'> +7.4702183e+04 </wgt>
<wgt id='1397'> +7.4637996e+04 </wgt>
<wgt id='1398'> +7.5272496e+04 </wgt>
<wgt id='1399'> +7.3885016e+04 </wgt>
<wgt id='1400'> +7.5894599e+04 </wgt>
<wgt id='1401'> +7.3847640e+04 </wgt>
<wgt id='1402'> +7.5215415e+04 </wgt>
<wgt id='1403'> +7.4933050e+04 </wgt>
<wgt id='1404'> +7.3931363e+04 </wgt>
<wgt id='1405'> +7.5337376e+04 </wgt>
<wgt id='1406'> +7.4781059e+04 </wgt>
<wgt id='1407'> +7.4316839e+04 </wgt>
<wgt id='1408'> +7.4638983e+04 </wgt>
<wgt id='1409'> +7.4551895e+04 </wgt>
<wgt id='1410'> +7.6218767e+04 </wgt>
<wgt id='1411'> +7.4838637e+04 </wgt>
<wgt id='1412'> +7.4738559e+04 </wgt>
<wgt id='1413'> +7.4819308e+04 </wgt>
<wgt id='1414'> +7.5508382e+04 </wgt>
<wgt id='1415'> +7.5263518e+04 </wgt>
<wgt id='1416'> +7.4426592e+04 </wgt>
<wgt id='1417'> +7.5863846e+04 </wgt>
<wgt id='1418'> +7.5104707e+04 </wgt>
<wgt id='1419'> +7.3547243e+04 </wgt>
<wgt id='1420'> +7.4981550e+04 </wgt>
<wgt id='1421'> +7.5301264e+04 </wgt>
<wgt id='1422'> +7.4213185e+04 </wgt>
<wgt id='1423'> +7.5024193e+04 </wgt>
<wgt id='1424'> +7.3348930e+04 </wgt>
<wgt id='1425'> +7.5058281e+04 </wgt>
<wgt id='1426'> +7.4876521e+04 </wgt>
<wgt id='1427'> +7.4423358e+04 </wgt>
<wgt id='1428'> +7.5344556e+04 </wgt>
<wgt id='1429'> +7.4875637e+04 </wgt>
<wgt id='1430'> +7.4208756e+04 </wgt>
<wgt id='1431'> +7.4616853e+04 </wgt>
<wgt id='1432'> +7.4641297e+04 </wgt>
<wgt id='1433'> +7.4712921e+04 </wgt>
<wgt id='1434'> +7.4573326e+04 </wgt>
<wgt id='1435'> +7.4763294e+04 </wgt>
<wgt id='1436'> +7.4208710e+04 </wgt>
<wgt id='1437'> +7.4650063e+04 </wgt>
<wgt id='1438'> +7.4636041e+04 </wgt>
<wgt id='1439'> +7.4842192e+04 </wgt>
<wgt id='1440'> +7.4476134e+04 </wgt>
<wgt id='1441'> +7.4432982e+04 </wgt>
<wgt id='1442'> +7.4357191e+04 </wgt>
<wgt id='1443'> +7.4606331e+04 </wgt>
<wgt id='1444'> +7.4781053e+04 </wgt>
<wgt id='1445'> +7.4589870e+04 </wgt>
<wgt id='1446'> +7.4290204e+04 </wgt>
<wgt id='1447'> +7.4554492e+04 </wgt>
<wgt id='1448'> +7.4789327e+04 </wgt>
<wgt id='1449'> +7.4739615e+04 </wgt>
<wgt id='1450'> +7.4547098e+04 </wgt>
<wgt id='1451'> +7.4677997e+04 </wgt>
<wgt id='1452'> +7.4560032e+04 </wgt>
<wgt id='1453'> +7.4607810e+04 </wgt>
<wgt id='1454'> +7.4776112e+04 </wgt>
<wgt id='1455'> +7.4648820e+04 </wgt>
<wgt id='1456'> +7.4578274e+04 </wgt>
<wgt id='1457'> +7.4627586e+04 </wgt>
<wgt id='1458'> +7.4585493e+04 </wgt>
<wgt id='1459'> +7.4531852e+04 </wgt>
<wgt id='1460'> +7.4598913e+04 </wgt>
<wgt id='1461'> +7.4556932e+04 </wgt>
<wgt id='1462'> +7.4614181e+04 </wgt>
<wgt id='1463'> +7.4602138e+04 </wgt>
<wgt id='1464'> +7.4599903e+04 </wgt>
<wgt id='1465'> +7.4549762e+04 </wgt>
<wgt id='1466'> +7.4604793e+04 </wgt>
<wgt id='1467'> +7.4606778e+04 </wgt>
<wgt id='1468'> +7.4638518e+04 </wgt>
<wgt id='1469'> +7.4625875e+04 </wgt>
<wgt id='1470'> +7.4570568e+04 </wgt>
<wgt id='1471'> +7.4625328e+04 </wgt>
<wgt id='1472'> +7.4599161e+04 </wgt>
<wgt id='1473'> +7.4609059e+04 </wgt>
<wgt id='1474'> +7.4641025e+04 </wgt>
<wgt id='1475'> +7.4627770e+04 </wgt>
<wgt id='1476'> +7.4568231e+04 </wgt>
<wgt id='1477'> +7.4619281e+04 </wgt>
<wgt id='1478'> +7.4631621e+04 </wgt>
<wgt id='1479'> +7.4634646e+04 </wgt>
<wgt id='1480'> +7.4644283e+04 </wgt>
<wgt id='1481'> +7.4630335e+04 </wgt>
<wgt id='1482'> +7.4875637e+04 </wgt>
<wgt id='1483'> +7.4208756e+04 </wgt>
<wgt id='1484'> +7.3549344e+04 </wgt>
<wgt id='1485'> +7.3957554e+04 </wgt>
<wgt id='1486'> +7.3984106e+04 </wgt>
<wgt id='1487'> +7.3337433e+04 </wgt>
<wgt id='1488'> +7.3149113e+04 </wgt>
<wgt id='1489'> +7.3275549e+04 </wgt>
<wgt id='1490'> +7.5490352e+04 </wgt>
<wgt id='1491'> +7.3258975e+04 </wgt>
<wgt id='1492'> +7.2770178e+04 </wgt>
<wgt id='1493'> +7.4183875e+04 </wgt>
<wgt id='1494'> +7.2897094e+04 </wgt>
<wgt id='1495'> +7.2983324e+04 </wgt>
<wgt id='1496'> +7.3204286e+04 </wgt>
<wgt id='1497'> +7.2713882e+04 </wgt>
<wgt id='1498'> +7.5028943e+04 </wgt>
<wgt id='1499'> +7.3271508e+04 </wgt>
<wgt id='1500'> +7.4121562e+04 </wgt>
<wgt id='1501'> +7.4075682e+04 </wgt>
<wgt id='1502'> +7.3955665e+04 </wgt>
<wgt id='1503'> +7.3029977e+04 </wgt>
<wgt id='1504'> +7.3543287e+04 </wgt>
<wgt id='1505'> +7.4736476e+04 </wgt>
<wgt id='1506'> +7.3766474e+04 </wgt>
<wgt id='1507'> +7.3580324e+04 </wgt>
<wgt id='1508'> +7.2535658e+04 </wgt>
<wgt id='1509'> +7.2998575e+04 </wgt>
<wgt id='1510'> +7.2113986e+04 </wgt>
<wgt id='1511'> +7.2611336e+04 </wgt>
<wgt id='1512'> +7.4923113e+04 </wgt>
<wgt id='1513'> +7.2152251e+04 </wgt>
<wgt id='1514'> +7.3164061e+04 </wgt>
<wgt id='1515'> +7.3152674e+04 </wgt>
<wgt id='1516'> +7.3272752e+04 </wgt>
<wgt id='1517'> +7.3805488e+04 </wgt>
<wgt id='1518'> +7.3551531e+04 </wgt>
<wgt id='1519'> +7.3002840e+04 </wgt>
<wgt id='1520'> +7.4172186e+04 </wgt>
<wgt id='1521'> +7.4049261e+04 </wgt>
<wgt id='1522'> +7.2924073e+04 </wgt>
<wgt id='1523'> +7.2485435e+04 </wgt>
<wgt id='1524'> +7.3446812e+04 </wgt>
<wgt id='1525'> +7.4566052e+04 </wgt>
<wgt id='1526'> +7.2879900e+04 </wgt>
<wgt id='1527'> +7.3081107e+04 </wgt>
<wgt id='1528'> +7.3363907e+04 </wgt>
<wgt id='1529'> +7.3208677e+04 </wgt>
<wgt id='1530'> +7.2910655e+04 </wgt>
<wgt id='1531'> +7.3730349e+04 </wgt>
<wgt id='1532'> +7.5189021e+04 </wgt>
<wgt id='1533'> +7.4155272e+04 </wgt>
<wgt id='1534'> +7.3358536e+04 </wgt>
<wgt id='1535'> +7.3205293e+04 </wgt>
<wgt id='1536'> +7.3932773e+04 </wgt>
<wgt id='1537'> +7.3325013e+04 </wgt>
<wgt id='1538'> +7.2755480e+04 </wgt>
<wgt id='1539'> +7.4023043e+04 </wgt>
<wgt id='1540'> +7.3150288e+04 </wgt>
<wgt id='1541'> +7.4425736e+04 </wgt>
<wgt id='1542'> +7.2745421e+04 </wgt>
<wgt id='1543'> +7.3786472e+04 </wgt>
<wgt id='1544'> +7.4211884e+04 </wgt>
<wgt id='1545'> +7.4184931e+04 </wgt>
<wgt id='1546'> +7.3594327e+04 </wgt>
<wgt id='1547'> +7.3778310e+04 </wgt>
<wgt id='1548'> +7.3137323e+04 </wgt>
<wgt id='1549'> +7.2952096e+04 </wgt>
<wgt id='1550'> +7.3167358e+04 </wgt>
<wgt id='1551'> +7.4103394e+04 </wgt>
<wgt id='1552'> +7.3688328e+04 </wgt>
<wgt id='1553'> +7.3809362e+04 </wgt>
<wgt id='1554'> +7.3037522e+04 </wgt>
<wgt id='1555'> +7.2539837e+04 </wgt>
<wgt id='1556'> +7.2722308e+04 </wgt>
<wgt id='1557'> +7.3027464e+04 </wgt>
<wgt id='1558'> +7.3964317e+04 </wgt>
<wgt id='1559'> +7.3982096e+04 </wgt>
<wgt id='1560'> +7.4387466e+04 </wgt>
<wgt id='1561'> +7.3789789e+04 </wgt>
<wgt id='1562'> +7.3417532e+04 </wgt>
<wgt id='1563'> +7.3866187e+04 </wgt>
<wgt id='1564'> +7.4154691e+04 </wgt>
<wgt id='1565'> +7.4209540e+04 </wgt>
<wgt id='1566'> +7.2765618e+04 </wgt>
<wgt id='1567'> +7.4296148e+04 </wgt>
<wgt id='1568'> +7.2972341e+04 </wgt>
<wgt id='1569'> +7.3607989e+04 </wgt>
<wgt id='1570'> +7.3340611e+04 </wgt>
<wgt id='1571'> +7.4111434e+04 </wgt>
<wgt id='1572'> +7.3863112e+04 </wgt>
<wgt id='1573'> +7.3426357e+04 </wgt>
<wgt id='1574'> +7.1388316e+04 </wgt>
<wgt id='1575'> +7.5524013e+04 </wgt>
<wgt id='1576'> +7.4115144e+04 </wgt>
<wgt id='1577'> +7.2592716e+04 </wgt>
<wgt id='1578'> +7.2707098e+04 </wgt>
<wgt id='1579'> +7.3533682e+04 </wgt>
<wgt id='1580'> +7.3742765e+04 </wgt>
<wgt id='1581'> +7.4190876e+04 </wgt>
<wgt id='1582'> +7.4867097e+04 </wgt>
<wgt id='1583'> +7.4168897e+04 </wgt>
<wgt id='1584'> +7.3169533e+04 </wgt>
<wgt id='1585'> +7.3648792e+04 </wgt>
<wgt id='1586'> +7.2952732e+04 </wgt>
<wgt id='1587'> +7.5058173e+04 </wgt>
<wgt id='1588'> +7.4875637e+04 </wgt>
<wgt id='1589'> +7.4683098e+04 </wgt>
<wgt id='1590'> +7.4315255e+04 </wgt>
<wgt id='1591'> +7.4208756e+04 </wgt>
<wgt id='1592'> +7.3881382e+04 </wgt>
<wgt id='1593'> +7.1165591e+04 </wgt>
<wgt id='1594'> +7.0706352e+04 </wgt>
<wgt id='1595'> +6.9613075e+04 </wgt>
<wgt id='1596'> +7.0772412e+04 </wgt>
<wgt id='1597'> +7.1469175e+04 </wgt>
<wgt id='1598'> +6.9463679e+04 </wgt>
<wgt id='1599'> +7.2166078e+04 </wgt>
<wgt id='1600'> +6.8215591e+04 </wgt>
<wgt id='1601'> +7.3752697e+04 </wgt>
<wgt id='1602'> +6.9453425e+04 </wgt>
<wgt id='1603'> +7.2711772e+04 </wgt>
<wgt id='1604'> +7.1687472e+04 </wgt>
<wgt id='1605'> +7.0920211e+04 </wgt>
<wgt id='1606'> +7.1022080e+04 </wgt>
<wgt id='1607'> +7.0505868e+04 </wgt>
<wgt id='1608'> +7.0925648e+04 </wgt>
<wgt id='1609'> +7.0231147e+04 </wgt>
<wgt id='1610'> +7.0259251e+04 </wgt>
<wgt id='1611'> +7.1654358e+04 </wgt>
<wgt id='1612'> +7.1918099e+04 </wgt>
<wgt id='1613'> +6.8976280e+04 </wgt>
<wgt id='1614'> +7.1276431e+04 </wgt>
<wgt id='1615'> +7.0938065e+04 </wgt>
<wgt id='1616'> +7.0508090e+04 </wgt>
<wgt id='1617'> +7.1008705e+04 </wgt>
<wgt id='1618'> +7.1451669e+04 </wgt>
<wgt id='1619'> +7.0545497e+04 </wgt>
<wgt id='1620'> +7.0015098e+04 </wgt>
<wgt id='1621'> +7.1652955e+04 </wgt>
<wgt id='1622'> +7.1176010e+04 </wgt>
<wgt id='1623'> +7.0268861e+04 </wgt>
<wgt id='1624'> +7.0809665e+04 </wgt>
<wgt id='1625'> +7.0553992e+04 </wgt>
<wgt id='1626'> +7.0425468e+04 </wgt>
<wgt id='1627'> +7.1108036e+04 </wgt>
<wgt id='1628'> +7.1537672e+04 </wgt>
<wgt id='1629'> +7.0799558e+04 </wgt>
<wgt id='1630'> +7.2408807e+04 </wgt>
<wgt id='1631'> +6.9225618e+04 </wgt>
<wgt id='1632'> +7.0380229e+04 </wgt>
<wgt id='1633'> +7.1344246e+04 </wgt>
<wgt id='1634'> +7.2254604e+04 </wgt>
<wgt id='1635'> +6.9821302e+04 </wgt>
<wgt id='1636'> +7.0301958e+04 </wgt>
<wgt id='1637'> +7.1936211e+04 </wgt>
<wgt id='1638'> +7.0965240e+04 </wgt>
<wgt id='1639'> +7.1169711e+04 </wgt>
<wgt id='1640'> +7.2360860e+04 </wgt>
<wgt id='1641'> +6.9569757e+04 </wgt>
<wgt id='1642'> +7.0527275e+04 </wgt>
<wgt id='1643'> +7.1295604e+04 </wgt>
<wgt id='1644'> +7.2216243e+04 </wgt>
<wgt id='1645'> +6.9026379e+04 </wgt>
<wgt id='1646'> +7.1600510e+04 </wgt>
<wgt id='1647'> +7.0694605e+04 </wgt>
<wgt id='1648'> +7.1232720e+04 </wgt>
<wgt id='1649'> +7.0927507e+04 </wgt>
<wgt id='1650'> +7.1044083e+04 </wgt>
<wgt id='1651'> +7.1340853e+04 </wgt>
<wgt id='1652'> +7.1163705e+04 </wgt>
<wgt id='1653'> +7.1147807e+04 </wgt>
<wgt id='1654'> +7.1221617e+04 </wgt>
<wgt id='1655'> +7.1323055e+04 </wgt>
<wgt id='1656'> +7.1142773e+04 </wgt>
<wgt id='1657'> +6.9972744e+04 </wgt>
<wgt id='1658'> +7.0750259e+04 </wgt>
<wgt id='1659'> +7.1068729e+04 </wgt>
<wgt id='1660'> +7.1003808e+04 </wgt>
<wgt id='1661'> +7.2236746e+04 </wgt>
<wgt id='1662'> +6.9723001e+04 </wgt>
<wgt id='1663'> +7.0347375e+04 </wgt>
<wgt id='1664'> +7.0435338e+04 </wgt>
<wgt id='1665'> +7.0355675e+04 </wgt>
<wgt id='1666'> +7.0853734e+04 </wgt>
<wgt id='1667'> +7.0706332e+04 </wgt>
<wgt id='1668'> +7.1254934e+04 </wgt>
<wgt id='1669'> +7.1709158e+04 </wgt>
<wgt id='1670'> +6.9858075e+04 </wgt>
<wgt id='1671'> +7.1390744e+04 </wgt>
<wgt id='1672'> +7.0588172e+04 </wgt>
<wgt id='1673'> +7.1511045e+04 </wgt>
<wgt id='1674'> +7.0816236e+04 </wgt>
<wgt id='1675'> +7.1278065e+04 </wgt>
<wgt id='1676'> +7.1139350e+04 </wgt>
<wgt id='1677'> +7.0553136e+04 </wgt>
<wgt id='1678'> +7.1435728e+04 </wgt>
<wgt id='1679'> +7.0652974e+04 </wgt>
<wgt id='1680'> +7.2273795e+04 </wgt>
<wgt id='1681'> +7.0762417e+04 </wgt>
<wgt id='1682'> +7.0763636e+04 </wgt>
<wgt id='1683'> +7.1428947e+04 </wgt>
<wgt id='1684'> +7.0771548e+04 </wgt>
<wgt id='1685'> +7.1642168e+04 </wgt>
<wgt id='1686'> +7.0221124e+04 </wgt>
<wgt id='1687'> +7.2312730e+04 </wgt>
<wgt id='1688'> +6.9215270e+04 </wgt>
<wgt id='1689'> +7.2413944e+04 </wgt>
<wgt id='1690'> +6.9988993e+04 </wgt>
<wgt id='1691'> +7.0353054e+04 </wgt>
<wgt id='1692'> +7.0926297e+04 </wgt>
<wgt id='1693'> +7.3176141e+04 </wgt>
<wgt id='1694'> +6.9651188e+04 </wgt>
<wgt id='1695'> +7.1378297e+04 </wgt>
<wgt id='1696'> +7.0466916e+04 </wgt>
<wgt id='1697'> +7.1770115e+04 </wgt>
<wgt id='1698'> +7.0458475e+04 </wgt>
<wgt id='1699'> +6.9800309e+04 </wgt>
<wgt id='1700'> +7.2644211e+04 </wgt>
<wgt id='1701'> +7.0203403e+04 </wgt>
<wgt id='1702'> +7.2224009e+04 </wgt>
<wgt id='1703'> +7.1926346e+04 </wgt>
<wgt id='1704'> +7.0550299e+04 </wgt>
<wgt id='1705'> +7.0061627e+04 </wgt>
<wgt id='1706'> +7.1721078e+04 </wgt>
<wgt id='1707'> +6.9757962e+04 </wgt>
<wgt id='1708'> +7.1993435e+04 </wgt>
<wgt id='1709'> +7.0619003e+04 </wgt>
<wgt id='1710'> +7.1795202e+04 </wgt>
<wgt id='1711'> +7.0461061e+04 </wgt>
<wgt id='1712'> +7.0805785e+04 </wgt>
<wgt id='1713'> +7.0394923e+04 </wgt>
<wgt id='1714'> +7.1379714e+04 </wgt>
<wgt id='1715'> +6.8648671e+04 </wgt>
<wgt id='1716'> +7.2131715e+04 </wgt>
<wgt id='1717'> +6.8725186e+04 </wgt>
<wgt id='1718'> +6.8800547e+04 </wgt>
<wgt id='1719'> +6.8628377e+04 </wgt>
<wgt id='1720'> +6.8141421e+04 </wgt>
<wgt id='1721'> +6.9260510e+04 </wgt>
<wgt id='1722'> +6.8411389e+04 </wgt>
<wgt id='1723'> +6.9240700e+04 </wgt>
<wgt id='1724'> +6.9043609e+04 </wgt>
<wgt id='1725'> +6.8466579e+04 </wgt>
<wgt id='1726'> +6.8682229e+04 </wgt>
<wgt id='1727'> +6.8769451e+04 </wgt>
<wgt id='1728'> +6.8303082e+04 </wgt>
<wgt id='1729'> +6.9134754e+04 </wgt>
<wgt id='1730'> +6.8830410e+04 </wgt>
<wgt id='1731'> +6.8650610e+04 </wgt>
<wgt id='1732'> +6.9037485e+04 </wgt>
<wgt id='1733'> +6.9037485e+04 </wgt>
<wgt id='1734'> +6.8794731e+04 </wgt>
<wgt id='1735'> +6.8675403e+04 </wgt>
<wgt id='1736'> +6.8538963e+04 </wgt>
<wgt id='1737'> +6.8988197e+04 </wgt>
<wgt id='1738'> +6.8771882e+04 </wgt>
<wgt id='1739'> +6.8617489e+04 </wgt>
<wgt id='1740'> +6.8679038e+04 </wgt>
<wgt id='1741'> +6.8837644e+04 </wgt>
<wgt id='1742'> +6.8830149e+04 </wgt>
<wgt id='1743'> +6.8621116e+04 </wgt>
<wgt id='1744'> +6.8618004e+04 </wgt>
<wgt id='1745'> +6.9016602e+04 </wgt>
<wgt id='1746'> +6.8429535e+04 </wgt>
<wgt id='1747'> +6.8885080e+04 </wgt>
<wgt id='1748'> +6.8898276e+04 </wgt>
<wgt id='1749'> +6.8129588e+04 </wgt>
<wgt id='1750'> +6.8832494e+04 </wgt>
<wgt id='1751'> +6.8610381e+04 </wgt>
<wgt id='1752'> +6.8639258e+04 </wgt>
<wgt id='1753'> +6.8843263e+04 </wgt>
<wgt id='1754'> +6.8839022e+04 </wgt>
<wgt id='1755'> +6.8662170e+04 </wgt>
<wgt id='1756'> +6.8658353e+04 </wgt>
<wgt id='1757'> +6.8929883e+04 </wgt>
<wgt id='1758'> +6.8940272e+04 </wgt>
<wgt id='1759'> +6.8508968e+04 </wgt>
<wgt id='1760'> +6.8956834e+04 </wgt>
<wgt id='1761'> +6.8555095e+04 </wgt>
<wgt id='1762'> +6.8633239e+04 </wgt>
<wgt id='1763'> +6.8545868e+04 </wgt>
<wgt id='1764'> +6.8639712e+04 </wgt>
<wgt id='1765'> +6.9160066e+04 </wgt>
<wgt id='1766'> +6.8752753e+04 </wgt>
<wgt id='1767'> +6.8666465e+04 </wgt>
<wgt id='1768'> +6.8677498e+04 </wgt>
<wgt id='1769'> +6.8734533e+04 </wgt>
<wgt id='1770'> +6.8270221e+04 </wgt>
<wgt id='1771'> +6.8830318e+04 </wgt>
<wgt id='1772'> +6.8686296e+04 </wgt>
<wgt id='1773'> +6.8898562e+04 </wgt>
<wgt id='1774'> +6.8279455e+04 </wgt>
<wgt id='1775'> +6.9015102e+04 </wgt>
<wgt id='1776'> +6.8811061e+04 </wgt>
<wgt id='1777'> +6.8691764e+04 </wgt>
<wgt id='1778'> +6.8308311e+04 </wgt>
<wgt id='1779'> +6.8561271e+04 </wgt>
<wgt id='1780'> +6.9787690e+04 </wgt>
<wgt id='1781'> +6.8787914e+04 </wgt>
<wgt id='1782'> +6.8725186e+04 </wgt>
<wgt id='1783'> +6.8783665e+04 </wgt>
<wgt id='1784'> +7.0804438e+04 </wgt>
<wgt id='1785'> +7.1403856e+04 </wgt>
<wgt id='1786'> +6.9165282e+04 </wgt>
<wgt id='1787'> +7.0821636e+04 </wgt>
<wgt id='1788'> +7.0214711e+04 </wgt>
<wgt id='1789'> +7.1009611e+04 </wgt>
<wgt id='1790'> +7.1336612e+04 </wgt>
<wgt id='1791'> +7.1174362e+04 </wgt>
<wgt id='1792'> +7.0079934e+04 </wgt>
<wgt id='1793'> +7.1297342e+04 </wgt>
<wgt id='1794'> +7.0601803e+04 </wgt>
<wgt id='1795'> +7.0702236e+04 </wgt>
<wgt id='1796'> +7.0987753e+04 </wgt>
<wgt id='1797'> +7.1060381e+04 </wgt>
<wgt id='1798'> +7.1089402e+04 </wgt>
<wgt id='1799'> +7.1280211e+04 </wgt>
<wgt id='1800'> +7.0908075e+04 </wgt>
<wgt id='1801'> +7.2100900e+04 </wgt>
<wgt id='1802'> +7.1313708e+04 </wgt>
<wgt id='1803'> +7.0723242e+04 </wgt>
<wgt id='1804'> +7.1078889e+04 </wgt>
<wgt id='1805'> +7.0539940e+04 </wgt>
<wgt id='1806'> +7.0765420e+04 </wgt>
<wgt id='1807'> +7.0808448e+04 </wgt>
<wgt id='1808'> +7.0848765e+04 </wgt>
<wgt id='1809'> +7.0860990e+04 </wgt>
<wgt id='1810'> +7.0904172e+04 </wgt>
<wgt id='1811'> +7.0862024e+04 </wgt>
<wgt id='1812'> +7.0828005e+04 </wgt>
<wgt id='1813'> +7.0972260e+04 </wgt>
<wgt id='1814'> +7.1139618e+04 </wgt>
<wgt id='1815'> +7.0716728e+04 </wgt>
<wgt id='1816'> +7.0904597e+04 </wgt>
<wgt id='1817'> +7.0907064e+04 </wgt>
<wgt id='1818'> +7.0858098e+04 </wgt>
<wgt id='1819'> +7.0788703e+04 </wgt>
<wgt id='1820'> +7.0846868e+04 </wgt>
<wgt id='1821'> +7.0890139e+04 </wgt>
<wgt id='1822'> +7.0849278e+04 </wgt>
<wgt id='1823'> +7.0966565e+04 </wgt>
<wgt id='1824'> +7.0711928e+04 </wgt>
<wgt id='1825'> +7.0602875e+04 </wgt>
<wgt id='1826'> +7.1462649e+04 </wgt>
<wgt id='1827'> +7.6139136e+04 </wgt>
<wgt id='1828'> +7.6347267e+04 </wgt>
<wgt id='1829'> +7.5959081e+04 </wgt>
<wgt id='1830'> +7.6034058e+04 </wgt>
<wgt id='1831'> +7.6271388e+04 </wgt>
<wgt id='1832'> +7.6241221e+04 </wgt>
<wgt id='1833'> +7.6064193e+04 </wgt>
<wgt id='1834'> +7.5823337e+04 </wgt>
<wgt id='1835'> +7.6465725e+04 </wgt>
<wgt id='1836'> +7.6530928e+04 </wgt>
<wgt id='1837'> +7.5770982e+04 </wgt>
<wgt id='1838'> +7.6337397e+04 </wgt>
<wgt id='1839'> +7.5971723e+04 </wgt>
<wgt id='1840'> +7.5942450e+04 </wgt>
<wgt id='1841'> +7.6364564e+04 </wgt>
<wgt id='1842'> +7.6055736e+04 </wgt>
<wgt id='1843'> +7.6256641e+04 </wgt>
<wgt id='1844'> +7.6207956e+04 </wgt>
<wgt id='1845'> +7.6079556e+04 </wgt>
<wgt id='1846'> +7.6236962e+04 </wgt>
<wgt id='1847'> +7.6071540e+04 </wgt>
<wgt id='1848'> +7.5535298e+04 </wgt>
<wgt id='1849'> +7.6657501e+04 </wgt>
<wgt id='1850'> +7.6182132e+04 </wgt>
<wgt id='1851'> +7.6110272e+04 </wgt>
<wgt id='1852'> +7.6195266e+04 </wgt>
<wgt id='1853'> +7.5925491e+04 </wgt>
<wgt id='1854'> +7.6226871e+04 </wgt>
<wgt id='1855'> +7.6109735e+04 </wgt>
<wgt id='1856'> +7.0279419e+04 </wgt>
<wgt id='1857'> +7.0266463e+04 </wgt>
<wgt id='1858'> +7.0203818e+04 </wgt>
<wgt id='1859'> +7.0375885e+04 </wgt>
<wgt id='1860'> +7.0281547e+04 </wgt>
<wgt id='1861'> +7.0382487e+04 </wgt>
<wgt id='1862'> +6.9940667e+04 </wgt>
<wgt id='1863'> +7.0400397e+04 </wgt>
<wgt id='1864'> +7.0046810e+04 </wgt>
<wgt id='1865'> +7.0162464e+04 </wgt>
<wgt id='1866'> +7.0349034e+04 </wgt>
<wgt id='1867'> +7.0200069e+04 </wgt>
<wgt id='1868'> +7.0283017e+04 </wgt>
<wgt id='1869'> +7.0404377e+04 </wgt>
<wgt id='1870'> +7.0148496e+04 </wgt>
<wgt id='1871'> +7.0407296e+04 </wgt>
<wgt id='1872'> +7.0153270e+04 </wgt>
<wgt id='1873'> +7.0252553e+04 </wgt>
<wgt id='1874'> +7.0195770e+04 </wgt>
<wgt id='1875'> +7.0400848e+04 </wgt>
<wgt id='1876'> +7.0127964e+04 </wgt>
<wgt id='1877'> +7.0071910e+04 </wgt>
<wgt id='1878'> +7.0201095e+04 </wgt>
<wgt id='1879'> +7.0264762e+04 </wgt>
<wgt id='1880'> +7.0419926e+04 </wgt>
<wgt id='1881'> +7.0264515e+04 </wgt>
<wgt id='1882'> +7.0274776e+04 </wgt>
<wgt id='1883'> +7.0248631e+04 </wgt>
<wgt id='1884'> +7.0306155e+04 </wgt>
<wgt id='1885'> +6.9915833e+04 </wgt>
<wgt id='1886'> +8.6482793e+04 </wgt>
<wgt id='1887'> +8.5152628e+04 </wgt>
<wgt id='1888'> +6.7313576e+04 </wgt>
<wgt id='1889'> +7.3606315e+04 </wgt>
</rwgt>
</event>
<event npLO=" -1 " npNLO=" 0 ">
 5      0 +7.4519530e+04 3.96411450e+01 7.55820760e-03 1.08612680e-01
       -1 -1    0    0    0  501 +0.0000000000e+00 +0.0000000000e+00 +1.2407952389e+02 1.2407952389e+02 0.0000000000e+00 0.0000e+00 1.0000e+00
        2 -1    0    0  501    0 +0.0000000000e+00 +0.0000000000e+00 -1.2984788525e+01 1.2984788525e+01 0.0000000000e+00 0.0000e+00 -1.0000e+00
       24  2    1    2    0    0 +0.0000000000e+00 +0.0000000000e+00 +1.1109473537e+02 1.3706431242e+02 8.0278175814e+01 0.0000e+00 0.0000e+00
      -11  1    3    3    0    0 -3.9576709803e+01 -2.2593013164e+00 +6.6308654046e+01 7.7254501505e+01 0.0000000000e+00 0.0000e+00 1.0000e+00
       12  1    3    3    0    0 +3.9576709803e+01 +2.2593013164e+00 +4.4786081319e+01 5.9809810911e+01 0.0000000000e+00 0.0000e+00 -1.0000e+00
#aMCatNLO 1  0  0  2  1 0.17712399E+03 0.00000000E+00 -9  5  0 0.00000000E+00 0.00000000E+00 0.00000000E+00 0.00000000E+00 0.00000000E+00
<rwgt>
<wgt id='1001'> +7.4519530e+04 </wgt>
<wgt id='1002'> +7.3678259e+04 </wgt>
<wgt id='1003'> +7.5567810e+04 </wgt>
<wgt id='1004'> +6.7055656e+04 </wgt>
<wgt id='1005'> +6.7640120e+04 </wgt>
<wgt id='1006'> +6.6327367e+04 </wgt>
<wgt id='1007'> +8.0415071e+04 </wgt>
<wgt id='1008'> +7.8233932e+04 </wgt>
<wgt id='1009'> +8.3132938e+04 </wgt>
<wgt id='1010'> +7.4519530e+04 </wgt>
<wgt id='1011'> +7.4522395e+04 </wgt>
<wgt id='1012'> +7.4333062e+04 </wgt>
<wgt id='1013'> +7.4217930e+04 </wgt>
<wgt id='1014'> +7.4834817e+04 </wgt>
<wgt id='1015'> +7.4135963e+04 </wgt>
<wgt id='1016'> +7.4673673e+04 </wgt>
<wgt id='1017'> +7.4396687e+04 </wgt>
<wgt id='1018'> +7.4145291e+04 </wgt>
<wgt id='1019'> +7.5052948e+04 </wgt>
<wgt id='1020'> +7.4129945e+04 </wgt>
<wgt id='1021'> +7.4587907e+04 </wgt>
<wgt id='1022'> +7.4656924e+04 </wgt>
<wgt id='1023'> +7.5011688e+04 </wgt>
<wgt id='1024'> +7.4487604e+04 </wgt>
<wgt id='1025'> +7.5619532e+04 </wgt>
<wgt id='1026'> +7.3977659e+04 </wgt>
<wgt id='1027'> +7.4271580e+04 </wgt>
<wgt id='1028'> +7.3887086e+04 </wgt>
<wgt id='1029'> +7.4631265e+04 </wgt>
<wgt id='1030'> +7.4554399e+04 </wgt>
<wgt id='1031'> +7.4321159e+04 </wgt>
<wgt id='1032'> +7.4909982e+04 </wgt>
<wgt id='1033'> +7.4074431e+04 </wgt>
<wgt id='1034'> +7.3749601e+04 </wgt>
<wgt id='1035'> +7.4374508e+04 </wgt>
<wgt id='1036'> +7.4282110e+04 </wgt>
<wgt id='1037'> +7.5208497e+04 </wgt>
<wgt id='1038'> +7.4760076e+04 </wgt>
<wgt id='1039'> +7.4931225e+04 </wgt>
<wgt id='1040'> +7.4721178e+04 </wgt>
<wgt id='1041'> +7.5105103e+04 </wgt>
<wgt id='1042'> +7.4381839e+04 </wgt>
<wgt id='1043'> +7.4458662e+04 </wgt>
<wgt id='1044'> +7.4597731e+04 </wgt>
<wgt id='1045'> +7.4478296e+04 </wgt>
<wgt id='1046'> +7.4380928e+04 </wgt>
<wgt id='1047'> +7.4800520e+04 </wgt>
<wgt id='1048'> +7.4663980e+04 </wgt>
<wgt id='1049'> +7.4614070e+04 </wgt>
<wgt id='1050'> +7.4589960e+04 </wgt>
<wgt id='1051'> +7.4517105e+04 </wgt>
<wgt id='1052'> +7.4064680e+04 </wgt>
<wgt id='1053'> +7.4489594e+04 </wgt>
<wgt id='1054'> +7.4658750e+04 </wgt>
<wgt id='1055'> +7.4824930e+04 </wgt>
<wgt id='1056'> +7.4527634e+04 </wgt>
<wgt id='1057'> +7.4729450e+04 </wgt>
<wgt id='1058'> +7.4490136e+04 </wgt>
<wgt id='1059'> +7.4311902e+04 </wgt>
<wgt id='1060'> +7.4474934e+04 </wgt>
<wgt id='1061'> +7.4704253e+04 </wgt>
<wgt id='1062'> +7.4337958e+04 </wgt>
<wgt id='1063'> +7.4359577e+04 </wgt>
<wgt id='1064'> +7.4431738e+04 </wgt>
<wgt id='1065'> +7.4542447e+04 </wgt>
<wgt id='1066'> +7.4462537e+04 </wgt>
<wgt id='1067'> +7.4629731e+04 </wgt>
<wgt id='1068'> +7.4541111e+04 </wgt>
<wgt id='1069'> +7.4618396e+04 </wgt>
<wgt id='1070'> +7.4639547e+04 </wgt>
<wgt id='1071'> +7.4489131e+04 </wgt>
<wgt id='1072'> +7.4539535e+04 </wgt>
<wgt id='1073'> +7.4414727e+04 </wgt>
<wgt id='1074'> +7.4579376e+04 </wgt>
<wgt id='1075'> +7.4530789e+04 </wgt>
<wgt id='1076'> +7.4560924e+04 </wgt>
<wgt id='1077'> +7.4585130e+04 </wgt>
<wgt id='1078'> +7.4462503e+04 </wgt>
<wgt id='1079'> +7.4429262e+04 </wgt>
<wgt id='1080'> +7.4628323e+04 </wgt>
<wgt id='1081'> +7.4650040e+04 </wgt>
<wgt id='1082'> +7.4380445e+04 </wgt>
<wgt id='1083'> +7.4538000e+04 </wgt>
<wgt id='1084'> +7.4455866e+04 </wgt>
<wgt id='1085'> +7.4588527e+04 </wgt>
<wgt id='1086'> +7.4451815e+04 </wgt>
<wgt id='1087'> +7.4560810e+04 </wgt>
<wgt id='1088'> +7.4528185e+04 </wgt>
<wgt id='1089'> +7.4528799e+04 </wgt>
<wgt id='1090'> +7.4507592e+04 </wgt>
<wgt id='1091'> +7.4492483e+04 </wgt>
<wgt id='1092'> +7.4626006e+04 </wgt>
<wgt id='1093'> +7.4412984e+04 </wgt>
<wgt id='1094'> +7.4531981e+04 </wgt>
<wgt id='1095'> +7.4571661e+04 </wgt>
<wgt id='1096'> +7.4497776e+04 </wgt>
<wgt id='1097'> +7.4557438e+04 </wgt>
<wgt id='1098'> +7.4520891e+04 </wgt>
<wgt id='1099'> +7.4514951e+04 </wgt>
<wgt id='1100'> +7.4475312e+04 </wgt>
<wgt id='1101'> +7.4492173e+04 </wgt>
<wgt id='1102'> +7.4495498e+04 </wgt>
<wgt id='1103'> +7.4506814e+04 </wgt>
<wgt id='1104'> +7.4471830e+04 </wgt>
<wgt id='1105'> +7.4493519e+04 </wgt>
<wgt id='1106'> +7.4506703e+04 </wgt>
<wgt id='1107'> +7.4510226e+04 </wgt>
<wgt id='1108'> +7.4547707e+04 </wgt>
<wgt id='1109'> +7.4552739e+04 </wgt>
<wgt id='1110'> +7.4519526e+04 </wgt>
<wgt id='1111'> +7.4686875e+04 </wgt>
<wgt id='1112'> +7.5026325e+04 </wgt>
<wgt id='1113'> +7.4519526e+04 </wgt>
<wgt id='1114'> +8.3699673e+04 </wgt>
<wgt id='1115'> +7.4624631e+04 </wgt>
<wgt id='1116'> +7.4872492e+04 </wgt>
<wgt id='1117'> +7.4703744e+04 </wgt>
<wgt id='1118'> +7.3044465e+04 </wgt>
<wgt id='1119'> +7.8192625e+04 </wgt>
<wgt id='1120'> +7.5025402e+04 </wgt>
<wgt id='1121'> +7.0571187e+04 </wgt>
<wgt id='1122'> +7.1407301e+04 </wgt>
<wgt id='1123'> +7.4200140e+04 </wgt>
<wgt id='1124'> +7.4376267e+04 </wgt>
<wgt id='1125'> +7.1597425e+04 </wgt>
<wgt id='1126'> +7.3081672e+04 </wgt>
<wgt id='1127'> +7.4639608e+04 </wgt>
<wgt id='1128'> +7.3888057e+04 </wgt>
<wgt id='1129'> +7.3901635e+04 </wgt>
<wgt id='1130'> +7.6822097e+04 </wgt>
<wgt id='1131'> +7.3317706e+04 </wgt>
<wgt id='1132'> +7.5052076e+04 </wgt>
<wgt id='1133'> +6.9856308e+04 </wgt>
<wgt id='1134'> +7.2222757e+04 </wgt>
<wgt id='1135'> +7.5628798e+04 </wgt>
<wgt id='1136'> +7.5635408e+04 </wgt>
<wgt id='1137'> +7.2119291e+04 </wgt>
<wgt id='1138'> +7.2648442e+04 </wgt>
<wgt id='1139'> +7.5210198e+04 </wgt>
<wgt id='1140'> +8.1856087e+04 </wgt>
<wgt id='1141'> +7.2587634e+04 </wgt>
<wgt id='1142'> +7.4666721e+04 </wgt>
<wgt id='1143'> +7.6869781e+04 </wgt>
<wgt id='1144'> +7.6557922e+04 </wgt>
<wgt id='1145'> +7.3628075e+04 </wgt>
<wgt id='1146'> +7.9124969e+04 </wgt>
<wgt id='1147'> +6.9663972e+04 </wgt>
<wgt id='1148'> +7.6301322e+04 </wgt>
<wgt id='1149'> +7.4628778e+04 </wgt>
<wgt id='1150'> +7.3799657e+04 </wgt>
<wgt id='1151'> +7.3856535e+04 </wgt>
<wgt id='1152'> +7.2439456e+04 </wgt>
<wgt id='1153'> +7.5803230e+04 </wgt>
<wgt id='1154'> +7.6047772e+04 </wgt>
<wgt id='1155'> +7.5168936e+04 </wgt>
<wgt id='1156'> +7.7354693e+04 </wgt>
<wgt id='1157'> +7.6656466e+04 </wgt>
<wgt id='1158'> +7.2948167e+04 </wgt>
<wgt id='1159'> +7.6370849e+04 </wgt>
<wgt id='1160'> +7.5322464e+04 </wgt>
<wgt id='1161'> +7.2204017e+04 </wgt>
<wgt id='1162'> +7.6223673e+04 </wgt>
<wgt id='1163'> +7.6845009e+04 </wgt>
<wgt id='1164'> +7.2025295e+04 </wgt>
<wgt id='1165'> +7.2801372e+04 </wgt>
<wgt id='1166'> +7.4525014e+04 </wgt>
<wgt id='1167'> +7.6560127e+04 </wgt>
<wgt id='1168'> +7.7307649e+04 </wgt>
<wgt id='1169'> +7.4963171e+04 </wgt>
<wgt id='1170'> +7.6781045e+04 </wgt>
<wgt id='1171'> +7.3790936e+04 </wgt>
<wgt id='1172'> +7.4053471e+04 </wgt>
<wgt id='1173'> +7.6666313e+04 </wgt>
<wgt id='1174'> +7.6928026e+04 </wgt>
<wgt id='1175'> +7.4297886e+04 </wgt>
<wgt id='1176'> +7.4534196e+04 </wgt>
<wgt id='1177'> +7.1984220e+04 </wgt>
<wgt id='1178'> +7.6662390e+04 </wgt>
<wgt id='1179'> +7.4967959e+04 </wgt>
<wgt id='1180'> +7.8619961e+04 </wgt>
<wgt id='1181'> +7.6051806e+04 </wgt>
<wgt id='1182'> +7.3863248e+04 </wgt>
<wgt id='1183'> +7.1753429e+04 </wgt>
<wgt id='1184'> +7.4305119e+04 </wgt>
<wgt id='1185'> +7.2386600e+04 </wgt>
<wgt id='1186'> +7.0393004e+04 </wgt>
<wgt id='1187'> +7.2241267e+04 </wgt>
<wgt id='1188'> +7.1424072e+04 </wgt>
<wgt id='1189'> +7.9855572e+04 </wgt>
<wgt id='1190'> +7.3971845e+04 </wgt>
<wgt id='1191'> +7.4474192e+04 </wgt>
<wgt id='1192'> +7.2999565e+04 </wgt>
<wgt id='1193'> +7.4818184e+04 </wgt>
<wgt id='1194'> +7.5190973e+04 </wgt>
<wgt id='1195'> +7.3901635e+04 </wgt>
<wgt id='1196'> +7.4390820e+04 </wgt>
<wgt id='1197'> +7.2106848e+04 </wgt>
<wgt id='1198'> +7.4532527e+04 </wgt>
<wgt id='1199'> +7.6181925e+04 </wgt>
<wgt id='1200'> +7.2641566e+04 </wgt>
<wgt id='1201'> +7.7297815e+04 </wgt>
<wgt id='1202'> +6.6082945e+04 </wgt>
<wgt id='1203'> +7.2824012e+04 </wgt>
<wgt id='1204'> +7.4818268e+04 </wgt>
<wgt id='1205'> +7.0183096e+04 </wgt>
<wgt id='1206'> +7.1866235e+04 </wgt>
<wgt id='1207'> +7.5687312e+04 </wgt>
<wgt id='1208'> +7.4711141e+04 </wgt>
<wgt id='1209'> +7.4264862e+04 </wgt>
<wgt id='1210'> +7.7566129e+04 </wgt>
<wgt id='1211'> +7.5027939e+04 </wgt>
<wgt id='1212'> +7.5711927e+04 </wgt>
<wgt id='1213'> +7.4656570e+04 </wgt>
<wgt id='1214'> +7.4639852e+04 </wgt>
<wgt id='1215'> +7.4429514e+04 </wgt>
<wgt id='1216'> +7.3981160e+04 </wgt>
<wgt id='1217'> +7.4159911e+04 </wgt>
<wgt id='1218'> +7.4507233e+04 </wgt>
<wgt id='1219'> +7.4624674e+04 </wgt>
<wgt id='1220'> +7.4842623e+04 </wgt>
<wgt id='1221'> +7.5143294e+04 </wgt>
<wgt id='1222'> +7.5348309e+04 </wgt>
<wgt id='1223'> +7.3593237e+04 </wgt>
<wgt id='1224'> +7.3526996e+04 </wgt>
<wgt id='1225'> +7.3687902e+04 </wgt>
<wgt id='1226'> +7.3529112e+04 </wgt>
<wgt id='1227'> +7.4128260e+04 </wgt>
<wgt id='1228'> +7.3606802e+04 </wgt>
<wgt id='1229'> +7.3270789e+04 </wgt>
<wgt id='1230'> +7.3622517e+04 </wgt>
<wgt id='1231'> +7.3393964e+04 </wgt>
<wgt id='1232'> +7.3672196e+04 </wgt>
<wgt id='1233'> +7.2820388e+04 </wgt>
<wgt id='1234'> +7.3495838e+04 </wgt>
<wgt id='1235'> +7.3895206e+04 </wgt>
<wgt id='1236'> +7.3716731e+04 </wgt>
<wgt id='1237'> +7.4050558e+04 </wgt>
<wgt id='1238'> +7.2952344e+04 </wgt>
<wgt id='1239'> +7.4079220e+04 </wgt>
<wgt id='1240'> +7.3341431e+04 </wgt>
<wgt id='1241'> +7.3869655e+04 </wgt>
<wgt id='1242'> +7.3503851e+04 </wgt>
<wgt id='1243'> +7.3162391e+04 </wgt>
<wgt id='1244'> +7.4192913e+04 </wgt>
<wgt id='1245'> +7.3720699e+04 </wgt>
<wgt id='1246'> +7.3594664e+04 </wgt>
<wgt id='1247'> +7.3752918e+04 </wgt>
<wgt id='1248'> +7.3141854e+04 </wgt>
<wgt id='1249'> +7.3479807e+04 </wgt>
<wgt id='1250'> +7.3906629e+04 </wgt>
<wgt id='1251'> +7.3502196e+04 </wgt>
<wgt id='1252'> +7.3786535e+04 </wgt>
<wgt id='1253'> +7.3311335e+04 </wgt>
<wgt id='1254'> +7.3979887e+04 </wgt>
<wgt id='1255'> +7.3167429e+04 </wgt>
<wgt id='1256'> +7.4055772e+04 </wgt>
<wgt id='1257'> +7.3643645e+04 </wgt>
<wgt id='1258'> +7.3539829e+04 </wgt>
<wgt id='1259'> +7.3320604e+04 </wgt>
<wgt id='1260'> +7.3542962e+04 </wgt>
<wgt id='1261'> +7.3224527e+04 </wgt>
<wgt id='1262'> +7.3579384e+04 </wgt>
<wgt id='1263'> +7.3659139e+04 </wgt>
<wgt id='1264'> +7.3145686e+04 </wgt>
<wgt id='1265'> +7.3552060e+04 </wgt>
<wgt id='1266'> +7.3939969e+04 </wgt>
<wgt id='1267'> +7.3442817e+04 </wgt>
<wgt id='1268'> +7.3656206e+04 </wgt>
<wgt id='1269'> +7.3518033e+04 </wgt>
<wgt id='1270'> +7.3672485e+04 </wgt>
<wgt id='1271'> +7.3822140e+04 </wgt>
<wgt id='1272'> +7.3488671e+04 </wgt>
<wgt id='1273'> +7.3690778e+04 </wgt>
<wgt id='1274'> +7.3699171e+04 </wgt>
<wgt id='1275'> +7.3561205e+04 </wgt>
<wgt id='1276'> +7.3692284e+04 </wgt>
<wgt id='1277'> +7.3608607e+04 </wgt>
<wgt id='1278'> +7.3512656e+04 </wgt>
<wgt id='1279'> +7.3574769e+04 </wgt>
<wgt id='1280'> +7.3606271e+04 </wgt>
<wgt id='1281'> +7.3737623e+04 </wgt>
<wgt id='1282'> +7.3631627e+04 </wgt>
<wgt id='1283'> +7.3526066e+04 </wgt>
<wgt id='1284'> +7.3619519e+04 </wgt>
<wgt id='1285'> +7.3695895e+04 </wgt>
<wgt id='1286'> +7.3698666e+04 </wgt>
<wgt id='1287'> +7.3599773e+04 </wgt>
<wgt id='1288'> +7.3625583e+04 </wgt>
<wgt id='1289'> +7.3736975e+04 </wgt>
<wgt id='1290'> +7.3410973e+04 </wgt>
<wgt id='1291'> +7.3463318e+04 </wgt>
<wgt id='1292'> +7.3603873e+04 </wgt>
<wgt id='1293'> +7.3568825e+04 </wgt>
<wgt id='1294'> +7.3645727e+04 </wgt>
<wgt id='1295'> +7.3602750e+04 </wgt>
<wgt id='1296'> +7.3450044e+04 </wgt>
<wgt id='1297'> +7.3686053e+04 </wgt>
<wgt id='1298'> +7.3755626e+04 </wgt>
<wgt id='1299'> +7.3590888e+04 </wgt>
<wgt id='1300'> +7.3597988e+04 </wgt>
<wgt id='1301'> +7.3560142e+04 </wgt>
<wgt id='1302'> +7.3722829e+04 </wgt>
<wgt id='1303'> +7.3497852e+04 </wgt>
<wgt id='1304'> +7.3569895e+04 </wgt>
<wgt id='1305'> +7.3557133e+04 </wgt>
<wgt id='1306'> +7.3524165e+04 </wgt>
<wgt id='1307'> +7.3561814e+04 </wgt>
<wgt id='1308'> +7.3553391e+04 </wgt>
<wgt id='1309'> +7.3584474e+04 </wgt>
<wgt id='1310'> +7.3521474e+04 </wgt>
<wgt id='1311'> +7.3615072e+04 </wgt>
<wgt id='1312'> +7.3672345e+04 </wgt>
<wgt id='1313'> +7.3534985e+04 </wgt>
<wgt id='1314'> +7.3651362e+04 </wgt>
<wgt id='1315'> +7.3601243e+04 </wgt>
<wgt id='1316'> +7.3662811e+04 </wgt>
<wgt id='1317'> +7.3568768e+04 </wgt>
<wgt id='1318'> +7.3528337e+04 </wgt>
<wgt id='1319'> +7.3559135e+04 </wgt>
<wgt id='1320'> +7.3631915e+04 </wgt>
<wgt id='1321'> +7.3591402e+04 </wgt>
<wgt id='1322'> +7.3552277e+04 </wgt>
<wgt id='1323'> +7.3594975e+04 </wgt>
<wgt id='1324'> +7.3415474e+04 </wgt>
<wgt id='1325'> +7.3954516e+04 </wgt>
<wgt id='1326'> +7.1262621e+04 </wgt>
<wgt id='1327'> +6.8349609e+04 </wgt>
<wgt id='1328'> +7.4474650e+04 </wgt>
<wgt id='1329'> +7.4560371e+04 </wgt>
<wgt id='1330'> +7.4959431e+04 </wgt>
<wgt id='1331'> +7.2606465e+04 </wgt>
<wgt id='1332'> +7.6436470e+04 </wgt>
<wgt id='1333'> +7.6719760e+04 </wgt>
<wgt id='1334'> +7.5246570e+04 </wgt>
<wgt id='1335'> +7.4127262e+04 </wgt>
<wgt id='1336'> +7.5846825e+04 </wgt>
<wgt id='1337'> +7.5099265e+04 </wgt>
<wgt id='1338'> +7.2253026e+04 </wgt>
<wgt id='1339'> +7.3729405e+04 </wgt>
<wgt id='1340'> +7.4647096e+04 </wgt>
<wgt id='1341'> +7.2953167e+04 </wgt>
<wgt id='1342'> +7.5748874e+04 </wgt>
<wgt id='1343'> +7.4690712e+04 </wgt>
<wgt id='1344'> +7.5992263e+04 </wgt>
<wgt id='1345'> +7.3283987e+04 </wgt>
<wgt id='1346'> +7.4134798e+04 </wgt>
<wgt id='1347'> +7.4455092e+04 </wgt>
<wgt id='1348'> +7.5046648e+04 </wgt>
<wgt id='1349'> +7.2384328e+04 </wgt>
<wgt id='1350'> +7.3642734e+04 </wgt>
<wgt id='1351'> +7.3953186e+04 </wgt>
<wgt id='1352'> +7.4034187e+04 </wgt>
<wgt id='1353'> +7.6664673e+04 </wgt>
<wgt id='1354'> +7.3058004e+04 </wgt>
<wgt id='1355'> +7.3718650e+04 </wgt>
<wgt id='1356'> +7.4206984e+04 </wgt>
<wgt id='1357'> +7.4276397e+04 </wgt>
<wgt id='1358'> +7.4189823e+04 </wgt>
<wgt id='1359'> +7.3676753e+04 </wgt>
<wgt id='1360'> +7.4907692e+04 </wgt>
<wgt id='1361'> +7.6749792e+04 </wgt>
<wgt id='1362'> +7.2564137e+04 </wgt>
<wgt id='1363'> +7.2697169e+04 </wgt>
<wgt id='1364'> +7.3899637e+04 </wgt>
<wgt id='1365'> +7.6350774e+04 </wgt>
<wgt id='1366'> +7.5347819e+04 </wgt>
<wgt id='1367'> +7.4709780e+04 </wgt>
<wgt id='1368'> +7.2478599e+04 </wgt>
<wgt id='1369'> +7.8826601e+04 </wgt>
<wgt id='1370'> +7.2437156e+04 </wgt>
<wgt id='1371'> +7.6556865e+04 </wgt>
<wgt id='1372'> +7.5647795e+04 </wgt>
<wgt id='1373'> +7.3895221e+04 </wgt>
<wgt id='1374'> +7.3430444e+04 </wgt>
<wgt id='1375'> +7.4336878e+04 </wgt>
<wgt id='1376'> +7.1218881e+04 </wgt>
<wgt id='1377'> +7.4177486e+04 </wgt>
<wgt id='1378'> +7.4029750e+04 </wgt>
<wgt id='1379'> +7.4181770e+04 </wgt>
<wgt id='1380'> +7.6420099e+04 </wgt>
<wgt id='1381'> +7.3843177e+04 </wgt>
<wgt id='1382'> +7.4177215e+04 </wgt>
<wgt id='1383'> +7.2201694e+04 </wgt>
<wgt id='1384'> +7.4646475e+04 </wgt>
<wgt id='1385'> +7.1893540e+04 </wgt>
<wgt id='1386'> +7.5357680e+04 </wgt>
<wgt id='1387'> +7.4546693e+04 </wgt>
<wgt id='1388'> +7.4458768e+04 </wgt>
<wgt id='1389'> +7.3815390e+04 </wgt>
<wgt id='1390'> +7.2790947e+04 </wgt>
<wgt id='1391'> +7.4627475e+04 </wgt>
<wgt id='1392'> +7.1739336e+04 </wgt>
<wgt id='1393'> +7.4511101e+04 </wgt>
<wgt id='1394'> +7.6350774e+04 </wgt>
<wgt id='1395'> +7.3557776e+04 </wgt>
<wgt id='1396'> +7.5436268e+04 </wgt>
<wgt id='1397'> +7.5124861e+04 </wgt>
<wgt id='1398'> +7.5609688e+04 </wgt>
<wgt id='1399'> +7.2643977e+04 </wgt>
<wgt id='1400'> +7.4889104e+04 </wgt>
<wgt id='1401'> +7.2260629e+04 </wgt>
<wgt id='1402'> +7.5596422e+04 </wgt>
<wgt id='1403'> +7.5375050e+04 </wgt>
<wgt id='1404'> +7.3613272e+04 </wgt>
<wgt id='1405'> +7.7976673e+04 </wgt>
<wgt id='1406'> +7.5170922e+04 </wgt>
<wgt id='1407'> +7.3739721e+04 </wgt>
<wgt id='1408'> +7.5735393e+04 </wgt>
<wgt id='1409'> +7.4558267e+04 </wgt>
<wgt id='1410'> +7.6630149e+04 </wgt>
<wgt id='1411'> +7.3122458e+04 </wgt>
<wgt id='1412'> +7.4753210e+04 </wgt>
<wgt id='1413'> +7.4682190e+04 </wgt>
<wgt id='1414'> +7.4878286e+04 </wgt>
<wgt id='1415'> +7.4170821e+04 </wgt>
<wgt id='1416'> +7.4360652e+04 </wgt>
<wgt id='1417'> +7.6244161e+04 </wgt>
<wgt id='1418'> +7.5744615e+04 </wgt>
<wgt id='1419'> +7.3578110e+04 </wgt>
<wgt id='1420'> +7.4597954e+04 </wgt>
<wgt id='1421'> +7.4740737e+04 </wgt>
<wgt id='1422'> +7.4213178e+04 </wgt>
<wgt id='1423'> +7.4516218e+04 </wgt>
<wgt id='1424'> +7.2633358e+04 </wgt>
<wgt id='1425'> +7.6817883e+04 </wgt>
<wgt id='1426'> +7.4096496e+04 </wgt>
<wgt id='1427'> +7.3839144e+04 </wgt>
<wgt id='1428'> +7.6180949e+04 </wgt>
<wgt id='1429'> +7.5087160e+04 </wgt>
<wgt id='1430'> +7.3851249e+04 </wgt>
<wgt id='1431'> +7.4444183e+04 </wgt>
<wgt id='1432'> +7.4269594e+04 </wgt>
<wgt id='1433'> +7.4490266e+04 </wgt>
<wgt id='1434'> +7.4518808e+04 </wgt>
<wgt id='1435'> +7.4672366e+04 </wgt>
<wgt id='1436'> +7.3666881e+04 </wgt>
<wgt id='1437'> +7.4790107e+04 </wgt>
<wgt id='1438'> +7.4551707e+04 </wgt>
<wgt id='1439'> +7.4818007e+04 </wgt>
<wgt id='1440'> +7.4294613e+04 </wgt>
<wgt id='1441'> +7.4315027e+04 </wgt>
<wgt id='1442'> +7.3720865e+04 </wgt>
<wgt id='1443'> +7.4304264e+04 </wgt>
<wgt id='1444'> +7.4566655e+04 </wgt>
<wgt id='1445'> +7.4306737e+04 </wgt>
<wgt id='1446'> +7.4485095e+04 </wgt>
<wgt id='1447'> +7.4881105e+04 </wgt>
<wgt id='1448'> +7.4717647e+04 </wgt>
<wgt id='1449'> +7.4390920e+04 </wgt>
<wgt id='1450'> +7.4552959e+04 </wgt>
<wgt id='1451'> +7.4545311e+04 </wgt>
<wgt id='1452'> +7.4496432e+04 </wgt>
<wgt id='1453'> +7.4341482e+04 </wgt>
<wgt id='1454'> +7.4598904e+04 </wgt>
<wgt id='1455'> +7.4403398e+04 </wgt>
<wgt id='1456'> +7.4309868e+04 </wgt>
<wgt id='1457'> +7.4413272e+04 </wgt>
<wgt id='1458'> +7.4490081e+04 </wgt>
<wgt id='1459'> +7.4602352e+04 </wgt>
<wgt id='1460'> +7.4442159e+04 </wgt>
<wgt id='1461'> +7.4369775e+04 </wgt>
<wgt id='1462'> +7.4395801e+04 </wgt>
<wgt id='1463'> +7.4443767e+04 </wgt>
<wgt id='1464'> +7.4390190e+04 </wgt>
<wgt id='1465'> +7.4434944e+04 </wgt>
<wgt id='1466'> +7.4313615e+04 </wgt>
<wgt id='1467'> +7.4453296e+04 </wgt>
<wgt id='1468'> +7.4448614e+04 </wgt>
<wgt id='1469'> +7.4463991e+04 </wgt>
<wgt id='1470'> +7.4531510e+04 </wgt>
<wgt id='1471'> +7.4437131e+04 </wgt>
<wgt id='1472'> +7.4428378e+04 </wgt>
<wgt id='1473'> +7.4504934e+04 </wgt>
<wgt id='1474'> +7.4460833e+04 </wgt>
<wgt id='1475'> +7.4432064e+04 </wgt>
<wgt id='1476'> +7.4469801e+04 </wgt>
<wgt id='1477'> +7.4414482e+04 </wgt>
<wgt id='1478'> +7.4411056e+04 </wgt>
<wgt id='1479'> +7.4429436e+04 </wgt>
<wgt id='1480'> +7.4469478e+04 </wgt>
<wgt id='1481'> +7.4447293e+04 </wgt>
<wgt id='1482'> +7.5087160e+04 </wgt>
<wgt id='1483'> +7.3851249e+04 </wgt>
<wgt id='1484'> +7.3948638e+04 </wgt>
<wgt id='1485'> +7.3599085e+04 </wgt>
<wgt id='1486'> +7.4730615e+04 </wgt>
<wgt id='1487'> +7.3979201e+04 </wgt>
<wgt id='1488'> +7.3477960e+04 </wgt>
<wgt id='1489'> +7.2007958e+04 </wgt>
<wgt id='1490'> +7.6421230e+04 </wgt>
<wgt id='1491'> +7.2991042e+04 </wgt>
<wgt id='1492'> +7.3255111e+04 </wgt>
<wgt id='1493'> +7.4777057e+04 </wgt>
<wgt id='1494'> +7.4162017e+04 </wgt>
<wgt id='1495'> +7.1927374e+04 </wgt>
<wgt id='1496'> +7.2707779e+04 </wgt>
<wgt id='1497'> +7.2683825e+04 </wgt>
<wgt id='1498'> +7.6017766e+04 </wgt>
<wgt id='1499'> +7.3985185e+04 </wgt>
<wgt id='1500'> +7.6046311e+04 </wgt>
<wgt id='1501'> +7.4279916e+04 </wgt>
<wgt id='1502'> +7.3470969e+04 </wgt>
<wgt id='1503'> +7.3272073e+04 </wgt>
<wgt id='1504'> +7.4706529e+04 </wgt>
<wgt id='1505'> +7.5218785e+04 </wgt>
<wgt id='1506'> +7.4578659e+04 </wgt>
<wgt id='1507'> +7.2977763e+04 </wgt>
<wgt id='1508'> +7.2977910e+04 </wgt>
<wgt id='1509'> +7.3799161e+04 </wgt>
<wgt id='1510'> +7.3743656e+04 </wgt>
<wgt id='1511'> +7.4658843e+04 </wgt>
<wgt id='1512'> +7.5881615e+04 </wgt>
<wgt id='1513'> +7.1704991e+04 </wgt>
<wgt id='1514'> +7.1083542e+04 </wgt>
<wgt id='1515'> +7.4937982e+04 </wgt>
<wgt id='1516'> +7.4690299e+04 </wgt>
<wgt id='1517'> +7.5060808e+04 </wgt>
<wgt id='1518'> +7.3690679e+04 </wgt>
<wgt id='1519'> +7.4177009e+04 </wgt>
<wgt id='1520'> +7.7057382e+04 </wgt>
<wgt id='1521'> +7.5567919e+04 </wgt>
<wgt id='1522'> +7.3756954e+04 </wgt>
<wgt id='1523'> +7.3484566e+04 </wgt>
<wgt id='1524'> +7.4390348e+04 </wgt>
<wgt id='1525'> +7.4589776e+04 </wgt>
<wgt id='1526'> +7.2394321e+04 </wgt>
<wgt id='1527'> +7.4196703e+04 </wgt>
<wgt id='1528'> +7.2999574e+04 </wgt>
<wgt id='1529'> +7.2705546e+04 </wgt>
<wgt id='1530'> +7.3399152e+04 </wgt>
<wgt id='1531'> +7.4170436e+04 </wgt>
<wgt id='1532'> +7.6952732e+04 </wgt>
<wgt id='1533'> +7.5842630e+04 </wgt>
<wgt id='1534'> +7.3171953e+04 </wgt>
<wgt id='1535'> +7.4167767e+04 </wgt>
<wgt id='1536'> +7.4240292e+04 </wgt>
<wgt id='1537'> +7.3683507e+04 </wgt>
<wgt id='1538'> +7.0707601e+04 </wgt>
<wgt id='1539'> +7.3592902e+04 </wgt>
<wgt id='1540'> +7.3318781e+04 </wgt>
<wgt id='1541'> +7.5739297e+04 </wgt>
<wgt id='1542'> +7.2383855e+04 </wgt>
<wgt id='1543'> +7.3403070e+04 </wgt>
<wgt id='1544'> +7.4288470e+04 </wgt>
<wgt id='1545'> +7.5141005e+04 </wgt>
<wgt id='1546'> +7.3809003e+04 </wgt>
<wgt id='1547'> +7.3280774e+04 </wgt>
<wgt id='1548'> +7.3940697e+04 </wgt>
<wgt id='1549'> +7.2908221e+04 </wgt>
<wgt id='1550'> +7.3761220e+04 </wgt>
<wgt id='1551'> +7.4133704e+04 </wgt>
<wgt id='1552'> +7.4532225e+04 </wgt>
<wgt id='1553'> +7.4415964e+04 </wgt>
<wgt id='1554'> +7.5134405e+04 </wgt>
<wgt id='1555'> +7.1334957e+04 </wgt>
<wgt id='1556'> +7.1460347e+04 </wgt>
<wgt id='1557'> +7.3295430e+04 </wgt>
<wgt id='1558'> +7.4163420e+04 </wgt>
<wgt id='1559'> +7.3216633e+04 </wgt>
<wgt id='1560'> +7.6011105e+04 </wgt>
<wgt id='1561'> +7.3214767e+04 </wgt>
<wgt id='1562'> +7.3614228e+04 </wgt>
<wgt id='1563'> +7.2063423e+04 </wgt>
<wgt id='1564'> +7.5628799e+04 </wgt>
<wgt id='1565'> +7.6327323e+04 </wgt>
<wgt id='1566'> +7.5278373e+04 </wgt>
<wgt id='1567'> +7.4478607e+04 </wgt>
<wgt id='1568'> +7.3269341e+04 </wgt>
<wgt id='1569'> +7.2812913e+04 </wgt>
<wgt id='1570'> +7.4597242e+04 </wgt>
<wgt id='1571'> +7.3197881e+04 </wgt>
<wgt id='1572'> +7.3596758e+04 </wgt>
<wgt id='1573'> +7.3118586e+04 </wgt>
<wgt id='1574'> +7.1722171e+04 </wgt>
<wgt id='1575'> +7.5951761e+04 </wgt>
<wgt id='1576'> +7.4157239e+04 </wgt>
<wgt id='1577'> +7.3257534e+04 </wgt>
<wgt id='1578'> +7.4388648e+04 </wgt>
<wgt id='1579'> +7.3254094e+04 </wgt>
<wgt id='1580'> +7.3054009e+04 </wgt>
<wgt id='1581'> +7.4942247e+04 </wgt>
<wgt id='1582'> +7.5206158e+04 </wgt>
<wgt id='1583'> +7.5348722e+04 </wgt>
<wgt id='1584'> +7.3852847e+04 </wgt>
<wgt id='1585'> +7.4976182e+04 </wgt>
<wgt id='1586'> +7.0207380e+04 </wgt>
<wgt id='1587'> +7.5797433e+04 </wgt>
<wgt id='1588'> +7.5087160e+04 </wgt>
<wgt id='1589'> +7.4682033e+04 </wgt>
<wgt id='1590'> +7.4143260e+04 </wgt>
<wgt id='1591'> +7.3851249e+04 </wgt>
<wgt id='1592'> +7.3453127e+04 </wgt>
<wgt id='1593'> +7.1239150e+04 </wgt>
<wgt id='1594'> +7.0432607e+04 </wgt>
<wgt id='1595'> +6.9464640e+04 </wgt>
<wgt id='1596'> +7.0647910e+04 </wgt>
<wgt id='1597'> +7.1795978e+04 </wgt>
<wgt id='1598'> +6.9349963e+04 </wgt>
<wgt id='1599'> +7.2403191e+04 </wgt>
<wgt id='1600'> +6.9652168e+04 </wgt>
<wgt id='1601'> +7.2440778e+04 </wgt>
<wgt id='1602'> +6.7786686e+04 </wgt>
<wgt id='1603'> +7.4124655e+04 </wgt>
<wgt id='1604'> +7.1229488e+04 </wgt>
<wgt id='1605'> +7.1793829e+04 </wgt>
<wgt id='1606'> +7.0707731e+04 </wgt>
<wgt id='1607'> +7.1156517e+04 </wgt>
<wgt id='1608'> +7.1092556e+04 </wgt>
<wgt id='1609'> +7.0289034e+04 </wgt>
<wgt id='1610'> +7.1935609e+04 </wgt>
<wgt id='1611'> +7.0215354e+04 </wgt>
<wgt id='1612'> +7.2176928e+04 </wgt>
<wgt id='1613'> +6.8771979e+04 </wgt>
<wgt id='1614'> +7.1683954e+04 </wgt>
<wgt id='1615'> +7.0482574e+04 </wgt>
<wgt id='1616'> +7.1333595e+04 </wgt>
<wgt id='1617'> +7.0221349e+04 </wgt>
<wgt id='1618'> +7.1332968e+04 </wgt>
<wgt id='1619'> +7.1153051e+04 </wgt>
<wgt id='1620'> +7.0627611e+04 </wgt>
<wgt id='1621'> +7.1363222e+04 </wgt>
<wgt id='1622'> +7.1127659e+04 </wgt>
<wgt id='1623'> +7.0298216e+04 </wgt>
<wgt id='1624'> +7.1083019e+04 </wgt>
<wgt id='1625'> +7.0490670e+04 </wgt>
<wgt id='1626'> +7.0277612e+04 </wgt>
<wgt id='1627'> +7.1476571e+04 </wgt>
<wgt id='1628'> +7.1810350e+04 </wgt>
<wgt id='1629'> +7.0718327e+04 </wgt>
<wgt id='1630'> +7.0823737e+04 </wgt>
<wgt id='1631'> +7.0811282e+04 </wgt>
<wgt id='1632'> +7.1034182e+04 </wgt>
<wgt id='1633'> +7.0779451e+04 </wgt>
<wgt id='1634'> +7.2057188e+04 </wgt>
<wgt id='1635'> +7.0107271e+04 </wgt>
<wgt id='1636'> +7.0588136e+04 </wgt>
<wgt id='1637'> +7.1682382e+04 </wgt>
<wgt id='1638'> +7.0500717e+04 </wgt>
<wgt id='1639'> +7.1554364e+04 </wgt>
<wgt id='1640'> +7.1547344e+04 </wgt>
<wgt id='1641'> +7.0350211e+04 </wgt>
<wgt id='1642'> +7.0721646e+04 </wgt>
<wgt id='1643'> +7.1274815e+04 </wgt>
<wgt id='1644'> +7.2135634e+04 </wgt>
<wgt id='1645'> +6.9207454e+04 </wgt>
<wgt id='1646'> +7.1239212e+04 </wgt>
<wgt id='1647'> +7.1279614e+04 </wgt>
<wgt id='1648'> +7.1649521e+04 </wgt>
<wgt id='1649'> +7.0597855e+04 </wgt>
<wgt id='1650'> +7.1207427e+04 </wgt>
<wgt id='1651'> +7.1254631e+04 </wgt>
<wgt id='1652'> +7.1209655e+04 </wgt>
<wgt id='1653'> +7.1210575e+04 </wgt>
<wgt id='1654'> +7.1300547e+04 </wgt>
<wgt id='1655'> +7.1396897e+04 </wgt>
<wgt id='1656'> +7.2727129e+04 </wgt>
<wgt id='1657'> +7.1049731e+04 </wgt>
<wgt id='1658'> +7.2314206e+04 </wgt>
<wgt id='1659'> +7.3420211e+04 </wgt>
<wgt id='1660'> +7.2073886e+04 </wgt>
<wgt id='1661'> +7.3954036e+04 </wgt>
<wgt id='1662'> +7.1070698e+04 </wgt>
<wgt id='1663'> +7.1834935e+04 </wgt>
<wgt id='1664'> +7.2025740e+04 </wgt>
<wgt id='1665'> +7.2270067e+04 </wgt>
<wgt id='1666'> +7.2334299e+04 </wgt>
<wgt id='1667'> +7.3134680e+04 </wgt>
<wgt id='1668'> +7.2213202e+04 </wgt>
<wgt id='1669'> +7.3608647e+04 </wgt>
<wgt id='1670'> +7.1058310e+04 </wgt>
<wgt id='1671'> +7.3125665e+04 </wgt>
<wgt id='1672'> +7.1984567e+04 </wgt>
<wgt id='1673'> +7.1311380e+04 </wgt>
<wgt id='1674'> +7.3506036e+04 </wgt>
<wgt id='1675'> +7.3261869e+04 </wgt>
<wgt id='1676'> +7.2246290e+04 </wgt>
<wgt id='1677'> +7.2395938e+04 </wgt>
<wgt id='1678'> +7.2761289e+04 </wgt>
<wgt id='1679'> +7.1713488e+04 </wgt>
<wgt id='1680'> +7.4203793e+04 </wgt>
<wgt id='1681'> +7.3620777e+04 </wgt>
<wgt id='1682'> +7.1133229e+04 </wgt>
<wgt id='1683'> +7.2683283e+04 </wgt>
<wgt id='1684'> +7.2614153e+04 </wgt>
<wgt id='1685'> +7.2421853e+04 </wgt>
<wgt id='1686'> +7.2503054e+04 </wgt>
<wgt id='1687'> +7.3881605e+04 </wgt>
<wgt id='1688'> +7.0657807e+04 </wgt>
<wgt id='1689'> +7.3320183e+04 </wgt>
<wgt id='1690'> +7.2095214e+04 </wgt>
<wgt id='1691'> +7.2838996e+04 </wgt>
<wgt id='1692'> +7.1814160e+04 </wgt>
<wgt id='1693'> +7.5079816e+04 </wgt>
<wgt id='1694'> +7.0910382e+04 </wgt>
<wgt id='1695'> +7.2191700e+04 </wgt>
<wgt id='1696'> +7.2697079e+04 </wgt>
<wgt id='1697'> +7.3249419e+04 </wgt>
<wgt id='1698'> +7.1920309e+04 </wgt>
<wgt id='1699'> +7.1507113e+04 </wgt>
<wgt id='1700'> +7.4037752e+04 </wgt>
<wgt id='1701'> +7.1509431e+04 </wgt>
<wgt id='1702'> +7.4082815e+04 </wgt>
<wgt id='1703'> +7.3031352e+04 </wgt>
<wgt id='1704'> +7.2695723e+04 </wgt>
<wgt id='1705'> +7.2264086e+04 </wgt>
<wgt id='1706'> +7.2781152e+04 </wgt>
<wgt id='1707'> +7.0563084e+04 </wgt>
<wgt id='1708'> +7.4262398e+04 </wgt>
<wgt id='1709'> +7.3073144e+04 </wgt>
<wgt id='1710'> +7.2480624e+04 </wgt>
<wgt id='1711'> +7.1647874e+04 </wgt>
<wgt id='1712'> +7.2692455e+04 </wgt>
<wgt id='1713'> +7.2141733e+04 </wgt>
<wgt id='1714'> +7.2876726e+04 </wgt>
<wgt id='1715'> +6.9546413e+04 </wgt>
<wgt id='1716'> +7.2685969e+04 </wgt>
<wgt id='1717'> +7.0746775e+04 </wgt>
<wgt id='1718'> +7.0630262e+04 </wgt>
<wgt id='1719'> +7.0894298e+04 </wgt>
<wgt id='1720'> +7.0282394e+04 </wgt>
<wgt id='1721'> +7.1172208e+04 </wgt>
<wgt id='1722'> +7.0451967e+04 </wgt>
<wgt id='1723'> +7.1230956e+04 </wgt>
<wgt id='1724'> +7.1222687e+04 </wgt>
<wgt id='1725'> +7.0360301e+04 </wgt>
<wgt id='1726'> +7.0734010e+04 </wgt>
<wgt id='1727'> +7.0759545e+04 </wgt>
<wgt id='1728'> +6.9969953e+04 </wgt>
<wgt id='1729'> +7.1502597e+04 </wgt>
<wgt id='1730'> +7.1026568e+04 </wgt>
<wgt id='1731'> +7.0547929e+04 </wgt>
<wgt id='1732'> +7.1165810e+04 </wgt>
<wgt id='1733'> +7.1165810e+04 </wgt>
<wgt id='1734'> +7.0672316e+04 </wgt>
<wgt id='1735'> +7.0795149e+04 </wgt>
<wgt id='1736'> +7.0375367e+04 </wgt>
<wgt id='1737'> +7.1266295e+04 </wgt>
<wgt id='1738'> +7.0896378e+04 </wgt>
<wgt id='1739'> +7.0450123e+04 </wgt>
<wgt id='1740'> +7.0688406e+04 </wgt>
<wgt id='1741'> +7.0886855e+04 </wgt>
<wgt id='1742'> +7.0743153e+04 </wgt>
<wgt id='1743'> +7.0759955e+04 </wgt>
<wgt id='1744'> +7.0955908e+04 </wgt>
<wgt id='1745'> +7.0175565e+04 </wgt>
<wgt id='1746'> +7.0862827e+04 </wgt>
<wgt id='1747'> +7.0660954e+04 </wgt>
<wgt id='1748'> +7.1121270e+04 </wgt>
<wgt id='1749'> +6.9574713e+04 </wgt>
<wgt id='1750'> +7.1097051e+04 </wgt>
<wgt id='1751'> +7.0372471e+04 </wgt>
<wgt id='1752'> +7.0749944e+04 </wgt>
<wgt id='1753'> +7.0751737e+04 </wgt>
<wgt id='1754'> +7.0587961e+04 </wgt>
<wgt id='1755'> +7.0836096e+04 </wgt>
<wgt id='1756'> +7.0764275e+04 </wgt>
<wgt id='1757'> +7.0747723e+04 </wgt>
<wgt id='1758'> +7.0914487e+04 </wgt>
<wgt id='1759'> +7.0541791e+04 </wgt>
<wgt id='1760'> +7.0591340e+04 </wgt>
<wgt id='1761'> +7.0969193e+04 </wgt>
<wgt id='1762'> +7.0648949e+04 </wgt>
<wgt id='1763'> +7.0633430e+04 </wgt>
<wgt id='1764'> +7.0667721e+04 </wgt>
<wgt id='1765'> +7.1067191e+04 </wgt>
<wgt id='1766'> +7.1046605e+04 </wgt>
<wgt id='1767'> +7.0331668e+04 </wgt>
<wgt id='1768'> +7.0878065e+04 </wgt>
<wgt id='1769'> +7.0589786e+04 </wgt>
<wgt id='1770'> +7.0209379e+04 </wgt>
<wgt id='1771'> +7.1051181e+04 </wgt>
<wgt id='1772'> +7.0444714e+04 </wgt>
<wgt id='1773'> +7.1395506e+04 </wgt>
<wgt id='1774'> +7.0024071e+04 </wgt>
<wgt id='1775'> +7.1216388e+04 </wgt>
<wgt id='1776'> +7.1168445e+04 </wgt>
<wgt id='1777'> +7.0563471e+04 </wgt>
<wgt id='1778'> +7.0263505e+04 </wgt>
<wgt id='1779'> +7.0597930e+04 </wgt>
<wgt id='1780'> +7.1737063e+04 </wgt>
<wgt id='1781'> +7.0972534e+04 </wgt>
<wgt id='1782'> +7.0746775e+04 </wgt>
<wgt id='1783'> +7.0898066e+04 </wgt>
<wgt id='1784'> +7.1373610e+04 </wgt>
<wgt id='1785'> +7.1639969e+04 </wgt>
<wgt id='1786'> +7.0074524e+04 </wgt>
<wgt id='1787'> +7.1276732e+04 </wgt>
<wgt id='1788'> +7.0240179e+04 </wgt>
<wgt id='1789'> +7.1491705e+04 </wgt>
<wgt id='1790'> +7.1682809e+04 </wgt>
<wgt id='1791'> +7.1623321e+04 </wgt>
<wgt id='1792'> +7.0835830e+04 </wgt>
<wgt id='1793'> +7.1523182e+04 </wgt>
<wgt id='1794'> +7.1248719e+04 </wgt>
<wgt id='1795'> +7.1372400e+04 </wgt>
<wgt id='1796'> +7.1678527e+04 </wgt>
<wgt id='1797'> +7.1404770e+04 </wgt>
<wgt id='1798'> +7.1560597e+04 </wgt>
<wgt id='1799'> +7.1842142e+04 </wgt>
<wgt id='1800'> +7.1665552e+04 </wgt>
<wgt id='1801'> +7.1990024e+04 </wgt>
<wgt id='1802'> +7.1707066e+04 </wgt>
<wgt id='1803'> +7.1101305e+04 </wgt>
<wgt id='1804'> +7.1574207e+04 </wgt>
<wgt id='1805'> +6.9880110e+04 </wgt>
<wgt id='1806'> +7.1282122e+04 </wgt>
<wgt id='1807'> +7.1310553e+04 </wgt>
<wgt id='1808'> +7.1446996e+04 </wgt>
<wgt id='1809'> +7.1398503e+04 </wgt>
<wgt id='1810'> +7.1380654e+04 </wgt>
<wgt id='1811'> +7.1412661e+04 </wgt>
<wgt id='1812'> +7.1342467e+04 </wgt>
<wgt id='1813'> +7.1361730e+04 </wgt>
<wgt id='1814'> +7.1692090e+04 </wgt>
<wgt id='1815'> +7.1335700e+04 </wgt>
<wgt id='1816'> +7.1388867e+04 </wgt>
<wgt id='1817'> +7.1390426e+04 </wgt>
<wgt id='1818'> +7.1432653e+04 </wgt>
<wgt id='1819'> +7.1603060e+04 </wgt>
<wgt id='1820'> +7.1426540e+04 </wgt>
<wgt id='1821'> +7.1422164e+04 </wgt>
<wgt id='1822'> +7.1500177e+04 </wgt>
<wgt id='1823'> +7.1376225e+04 </wgt>
<wgt id='1824'> +7.1345280e+04 </wgt>
<wgt id='1825'> +7.1399918e+04 </wgt>
<wgt id='1826'> +7.2025635e+04 </wgt>
<wgt id='1827'> +6.8398306e+04 </wgt>
<wgt id='1828'> +6.8579313e+04 </wgt>
<wgt id='1829'> +6.8220861e+04 </wgt>
<wgt id='1830'> +6.8278332e+04 </wgt>
<wgt id='1831'> +6.8520951e+04 </wgt>
<wgt id='1832'> +6.8490848e+04 </wgt>
<wgt id='1833'> +6.8308568e+04 </wgt>
<wgt id='1834'> +6.8051732e+04 </wgt>
<wgt id='1835'> +6.8732516e+04 </wgt>
<wgt id='1836'> +6.8674784e+04 </wgt>
<wgt id='1837'> +6.8120612e+04 </wgt>
<wgt id='1838'> +6.8434435e+04 </wgt>
<wgt id='1839'> +6.8364698e+04 </wgt>
<wgt id='1840'> +6.8285889e+04 </wgt>
<wgt id='1841'> +6.8514744e+04 </wgt>
<wgt id='1842'> +6.8338209e+04 </wgt>
<wgt id='1843'> +6.8479195e+04 </wgt>
<wgt id='1844'> +6.8458381e+04 </wgt>
<wgt id='1845'> +6.8327370e+04 </wgt>
<wgt id='1846'> +6.8262950e+04 </wgt>
<wgt id='1847'> +6.8531737e+04 </wgt>
<wgt id='1848'> +6.8287767e+04 </wgt>
<wgt id='1849'> +6.8417677e+04 </wgt>
<wgt id='1850'> +6.8976633e+04 </wgt>
<wgt id='1851'> +6.7838347e+04 </wgt>
<wgt id='1852'> +6.9284990e+04 </wgt>
<wgt id='1853'> +6.7434233e+04 </wgt>
<wgt id='1854'> +6.9161954e+04 </wgt>
<wgt id='1855'> +6.7725574e+04 </wgt>
<wgt id='1856'> +7.0153792e+04 </wgt>
<wgt id='1857'> +7.0143340e+04 </wgt>
<wgt id='1858'> +7.0088934e+04 </wgt>
<wgt id='1859'> +7.0135177e+04 </wgt>
<wgt id='1860'> +7.0156526e+04 </wgt>
<wgt id='1861'> +7.0288461e+04 </wgt>
<wgt id='1862'> +6.9714732e+04 </wgt>
<wgt id='1863'> +7.0334591e+04 </wgt>
<wgt id='1864'> +7.0038529e+04 </wgt>
<wgt id='1865'> +6.9930041e+04 </wgt>
<wgt id='1866'> +7.0061062e+04 </wgt>
<wgt id='1867'> +7.0122949e+04 </wgt>
<wgt id='1868'> +7.0185100e+04 </wgt>
<wgt id='1869'> +7.0272196e+04 </wgt>
<wgt id='1870'> +7.0048977e+04 </wgt>
<wgt id='1871'> +7.0270265e+04 </wgt>
<wgt id='1872'> +6.9984042e+04 </wgt>
<wgt id='1873'> +7.0136889e+04 </wgt>
<wgt id='1874'> +7.0093906e+04 </wgt>
<wgt id='1875'> +7.0279260e+04 </wgt>
<wgt id='1876'> +7.0213494e+04 </wgt>
<wgt id='1877'> +6.9920262e+04 </wgt>
<wgt id='1878'> +7.0068037e+04 </wgt>
<wgt id='1879'> +7.0027771e+04 </wgt>
<wgt id='1880'> +7.0223210e+04 </wgt>
<wgt id='1881'> +7.0056868e+04 </wgt>
<wgt id='1882'> +7.0309283e+04 </wgt>
<wgt id='1883'> +6.9948484e+04 </wgt>
<wgt id='1884'> +7.0468700e+04 </wgt>
<wgt id='1885'> +6.9789511e+04 </wgt>
<wgt id='1886'> +8.4802371e+04 </wgt>
<wgt id='1887'> +8.1977547e+04 </wgt>
<wgt id='1888'> +6.7149334e+04 </wgt>
<wgt id='1889'> +7.1563854e+04 </wgt>
</rwgt>
</event>
<event npLO=" -1 " npNLO=" 0 ">
 5      0 +7.4519530e+04 3.00000000e+01 7.55820760e-03 1.18725880e-01
        2 -1    0    0  501    0 +0.0000000000e+00 +0.0000000000e+00 +1.0114576934e+01 1.0114576934e+01 0.0000000000e+00 0.0000e+00 -1.0000e+00
       -1 -1    0    0    0  501 +0.0000000000e+00 +0.0000000000e+00 -1.5597117564e+02 1.5597117564e+02 0.0000000000e+00 0.0000e+00 1.0000e+00
       24  2    1    2    0    0 +0.0000000000e+00 +0.0000000000e+00 -1.4585659870e+02 1.6608575257e+02 7.9437584441e+01 0.0000e+00 0.0000e+00
      -15  1    3    3    0    0 -7.2405973033e+00 +1.8322076749e+00 -1.5448394967e+02 1.5467459930e+02 1.7770000000e+00 0.0000e+00 1.0000e+00
       16  1    3    3    0    0 +7.2405973033e+00 -1.8322076749e+00 +8.6273509663e+00 1.1411153271e+01 0.0000000000e+00 0.0000e+00 -1.0000e+00
#aMCatNLO 1  0  0  2  2 0.73114628E+02 0.00000000E+00 -9  5  0 0.00000000E+00 0.00000000E+00 0.00000000E+00 0.00000000E+00 0.00000000E+00
<rwgt>
<wgt id='1001'> +7.4519530e+04 </wgt>
<wgt id='1002'> +7.3236562e+04 </wgt>
<wgt id='1003'> +7.6118822e+04 </wgt>
<wgt id='1004'> +8.2229381e+04 </wgt>
<wgt id='1005'> +8.0857154e+04 </wgt>
<wgt id='1006'> +8.3939940e+04 </wgt>
<wgt id='1007'> +6.5923439e+04 </wgt>
<wgt id='1008'> +6.4754069e+04 </wgt>
<wgt id='1009'> +6.7381126e+04 </wgt>
<wgt id='1010'> +7.4519530e+04 </wgt>
<wgt id='1011'> +7.4515162e+04 </wgt>
<wgt id='1012'> +7.4330149e+04 </wgt>
<wgt id='1013'> +7.4330669e+04 </wgt>
<wgt id='1014'> +7.4852185e+04 </wgt>
<wgt id='1015'> +7.4018615e+04 </wgt>
<wgt id='1016'> +7.4640383e+04 </wgt>
<wgt id='1017'> +7.4358306e+04 </wgt>
<wgt id='1018'> +7.4100866e+04 </wgt>
<wgt id='1019'> +7.5123027e+04 </wgt>
<wgt id='1020'> +7.4161046e+04 </wgt>
<wgt id='1021'> +7.4753455e+04 </wgt>
<wgt id='1022'> +7.4659527e+04 </wgt>
<wgt id='1023'> +7.5106077e+04 </wgt>
<wgt id='1024'> +7.4360937e+04 </wgt>
<wgt id='1025'> +7.5646998e+04 </wgt>
<wgt id='1026'> +7.3972999e+04 </wgt>
<wgt id='1027'> +7.4276803e+04 </wgt>
<wgt id='1028'> +7.3904170e+04 </wgt>
<wgt id='1029'> +7.4638756e+04 </wgt>
<wgt id='1030'> +7.4466401e+04 </wgt>
<wgt id='1031'> +7.4326429e+04 </wgt>
<wgt id='1032'> +7.4861465e+04 </wgt>
<wgt id='1033'> +7.4091005e+04 </wgt>
<wgt id='1034'> +7.3744885e+04 </wgt>
<wgt id='1035'> +7.4468762e+04 </wgt>
<wgt id='1036'> +7.4313497e+04 </wgt>
<wgt id='1037'> +7.5218002e+04 </wgt>
<wgt id='1038'> +7.4657973e+04 </wgt>
<wgt id='1039'> +7.5117383e+04 </wgt>
<wgt id='1040'> +7.4838882e+04 </wgt>
<wgt id='1041'> +7.5068351e+04 </wgt>
<wgt id='1042'> +7.4381049e+04 </wgt>
<wgt id='1043'> +7.4403459e+04 </wgt>
<wgt id='1044'> +7.4587030e+04 </wgt>
<wgt id='1045'> +7.4436343e+04 </wgt>
<wgt id='1046'> +7.4444541e+04 </wgt>
<wgt id='1047'> +7.4812836e+04 </wgt>
<wgt id='1048'> +7.4687490e+04 </wgt>
<wgt id='1049'> +7.4604574e+04 </wgt>
<wgt id='1050'> +7.4517939e+04 </wgt>
<wgt id='1051'> +7.4403957e+04 </wgt>
<wgt id='1052'> +7.3987015e+04 </wgt>
<wgt id='1053'> +7.4468508e+04 </wgt>
<wgt id='1054'> +7.4634773e+04 </wgt>
<wgt id='1055'> +7.4846239e+04 </wgt>
<wgt id='1056'> +7.4611429e+04 </wgt>
<wgt id='1057'> +7.4770791e+04 </wgt>
<wgt id='1058'> +7.4540537e+04 </wgt>
<wgt id='1059'> +7.4282382e+04 </wgt>
<wgt id='1060'> +7.4562560e+04 </wgt>
<wgt id='1061'> +7.4816367e+04 </wgt>
<wgt id='1062'> +7.4225889e+04 </wgt>
<wgt id='1063'> +7.4310259e+04 </wgt>
<wgt id='1064'> +7.4380959e+04 </wgt>
<wgt id='1065'> +7.4567539e+04 </wgt>
<wgt id='1066'> +7.4467113e+04 </wgt>
<wgt id='1067'> +7.4593529e+04 </wgt>
<wgt id='1068'> +7.4581864e+04 </wgt>
<wgt id='1069'> +7.4573237e+04 </wgt>
<wgt id='1070'> +7.4683103e+04 </wgt>
<wgt id='1071'> +7.4438498e+04 </wgt>
<wgt id='1072'> +7.4511863e+04 </wgt>
<wgt id='1073'> +7.4384554e+04 </wgt>
<wgt id='1074'> +7.4520573e+04 </wgt>
<wgt id='1075'> +7.4511086e+04 </wgt>
<wgt id='1076'> +7.4551286e+04 </wgt>
<wgt id='1077'> +7.4603793e+04 </wgt>
<wgt id='1078'> +7.4522916e+04 </wgt>
<wgt id='1079'> +7.4384058e+04 </wgt>
<wgt id='1080'> +7.4667467e+04 </wgt>
<wgt id='1081'> +7.4632692e+04 </wgt>
<wgt id='1082'> +7.4359077e+04 </wgt>
<wgt id='1083'> +7.4546957e+04 </wgt>
<wgt id='1084'> +7.4419098e+04 </wgt>
<wgt id='1085'> +7.4587762e+04 </wgt>
<wgt id='1086'> +7.4451481e+04 </wgt>
<wgt id='1087'> +7.4548087e+04 </wgt>
<wgt id='1088'> +7.4530483e+04 </wgt>
<wgt id='1089'> +7.4513216e+04 </wgt>
<wgt id='1090'> +7.4511296e+04 </wgt>
<wgt id='1091'> +7.4490560e+04 </wgt>
<wgt id='1092'> +7.4637969e+04 </wgt>
<wgt id='1093'> +7.4417210e+04 </wgt>
<wgt id='1094'> +7.4532976e+04 </wgt>
<wgt id='1095'> +7.4582390e+04 </wgt>
<wgt id='1096'> +7.4532479e+04 </wgt>
<wgt id='1097'> +7.4552300e+04 </wgt>
<wgt id='1098'> +7.4552269e+04 </wgt>
<wgt id='1099'> +7.4534783e+04 </wgt>
<wgt id='1100'> +7.4484038e+04 </wgt>
<wgt id='1101'> +7.4510903e+04 </wgt>
<wgt id='1102'> +7.4520635e+04 </wgt>
<wgt id='1103'> +7.4489615e+04 </wgt>
<wgt id='1104'> +7.4475768e+04 </wgt>
<wgt id='1105'> +7.4482864e+04 </wgt>
<wgt id='1106'> +7.4515955e+04 </wgt>
<wgt id='1107'> +7.4526329e+04 </wgt>
<wgt id='1108'> +7.4552548e+04 </wgt>
<wgt id='1109'> +7.4558785e+04 </wgt>
<wgt id='1110'> +7.4519530e+04 </wgt>
<wgt id='1111'> +7.4608489e+04 </wgt>
<wgt id='1112'> +7.5240504e+04 </wgt>
<wgt id='1113'> +7.4519530e+04 </wgt>
<wgt id='1114'> +8.4411269e+04 </wgt>
<wgt id='1115'> +7.4179603e+04 </wgt>
<wgt id='1116'> +7.6256526e+04 </wgt>
<wgt id='1117'> +7.5303343e+04 </wgt>
<wgt id='1118'> +7.2642881e+04 </wgt>
<wgt id='1119'> +7.6507063e+04 </wgt>
<wgt id='1120'> +7.4457482e+04 </wgt>
<wgt id='1121'> +7.1117463e+04 </wgt>
<wgt id='1122'> +7.1115275e+04 </wgt>
<wgt id='1123'> +7.4354245e+04 </wgt>
<wgt id='1124'> +7.4755997e+04 </wgt>
<wgt id='1125'> +7.1795183e+04 </wgt>
<wgt id='1126'> +7.3276533e+04 </wgt>
<wgt id='1127'> +7.4989118e+04 </wgt>
<wgt id='1128'> +7.3815360e+04 </wgt>
<wgt id='1129'> +7.3539612e+04 </wgt>
<wgt id='1130'> +7.7196336e+04 </wgt>
<wgt id='1131'> +7.3552903e+04 </wgt>
<wgt id='1132'> +7.4569781e+04 </wgt>
<wgt id='1133'> +7.0052328e+04 </wgt>
<wgt id='1134'> +7.2006663e+04 </wgt>
<wgt id='1135'> +7.5795179e+04 </wgt>
<wgt id='1136'> +7.5293260e+04 </wgt>
<wgt id='1137'> +7.2646719e+04 </wgt>
<wgt id='1138'> +7.2207156e+04 </wgt>
<wgt id='1139'> +7.4831337e+04 </wgt>
<wgt id='1140'> +8.3356596e+04 </wgt>
<wgt id='1141'> +7.2691210e+04 </wgt>
<wgt id='1142'> +7.4501970e+04 </wgt>
<wgt id='1143'> +7.6516365e+04 </wgt>
<wgt id='1144'> +7.6583943e+04 </wgt>
<wgt id='1145'> +7.3415253e+04 </wgt>
<wgt id='1146'> +7.9373112e+04 </wgt>
<wgt id='1147'> +7.0624949e+04 </wgt>
<wgt id='1148'> +7.6577286e+04 </wgt>
<wgt id='1149'> +7.4460138e+04 </wgt>
<wgt id='1150'> +7.4232708e+04 </wgt>
<wgt id='1151'> +7.3375885e+04 </wgt>
<wgt id='1152'> +7.2180038e+04 </wgt>
<wgt id='1153'> +7.5280760e+04 </wgt>
<wgt id='1154'> +7.6232238e+04 </wgt>
<wgt id='1155'> +7.4817018e+04 </wgt>
<wgt id='1156'> +7.7984936e+04 </wgt>
<wgt id='1157'> +7.6464575e+04 </wgt>
<wgt id='1158'> +7.2783501e+04 </wgt>
<wgt id='1159'> +7.6254979e+04 </wgt>
<wgt id='1160'> +7.5418454e+04 </wgt>
<wgt id='1161'> +7.2714184e+04 </wgt>
<wgt id='1162'> +7.5869858e+04 </wgt>
<wgt id='1163'> +7.6863692e+04 </wgt>
<wgt id='1164'> +7.2092548e+04 </wgt>
<wgt id='1165'> +7.2515532e+04 </wgt>
<wgt id='1166'> +7.4922406e+04 </wgt>
<wgt id='1167'> +7.6669083e+04 </wgt>
<wgt id='1168'> +7.8191882e+04 </wgt>
<wgt id='1169'> +7.5027563e+04 </wgt>
<wgt id='1170'> +7.6919453e+04 </wgt>
<wgt id='1171'> +7.3543223e+04 </wgt>
<wgt id='1172'> +7.3526490e+04 </wgt>
<wgt id='1173'> +7.6699154e+04 </wgt>
<wgt id='1174'> +7.7033666e+04 </wgt>
<wgt id='1175'> +7.3934109e+04 </wgt>
<wgt id='1176'> +7.5553225e+04 </wgt>
<wgt id='1177'> +7.3273447e+04 </wgt>
<wgt id='1178'> +7.6550573e+04 </wgt>
<wgt id='1179'> +7.4044793e+04 </wgt>
<wgt id='1180'> +7.9048208e+04 </wgt>
<wgt id='1181'> +7.5319832e+04 </wgt>
<wgt id='1182'> +7.3288434e+04 </wgt>
<wgt id='1183'> +7.1838718e+04 </wgt>
<wgt id='1184'> +7.4424007e+04 </wgt>
<wgt id='1185'> +7.1152308e+04 </wgt>
<wgt id='1186'> +6.9750314e+04 </wgt>
<wgt id='1187'> +7.2724896e+04 </wgt>
<wgt id='1188'> +7.0274566e+04 </wgt>
<wgt id='1189'> +7.9436670e+04 </wgt>
<wgt id='1190'> +7.4539871e+04 </wgt>
<wgt id='1191'> +7.4424422e+04 </wgt>
<wgt id='1192'> +7.2868559e+04 </wgt>
<wgt id='1193'> +7.5222854e+04 </wgt>
<wgt id='1194'> +7.5966156e+04 </wgt>
<wgt id='1195'> +7.3539612e+04 </wgt>
<wgt id='1196'> +7.4370867e+04 </wgt>
<wgt id='1197'> +7.2397117e+04 </wgt>
<wgt id='1198'> +7.4547764e+04 </wgt>
<wgt id='1199'> +7.5776664e+04 </wgt>
<wgt id='1200'> +7.2675518e+04 </wgt>
<wgt id='1201'> +7.7830642e+04 </wgt>
<wgt id='1202'> +6.5281415e+04 </wgt>
<wgt id='1203'> +7.2685322e+04 </wgt>
<wgt id='1204'> +7.4630130e+04 </wgt>
<wgt id='1205'> +6.9364393e+04 </wgt>
<wgt id='1206'> +7.1457837e+04 </wgt>
<wgt id='1207'> +7.5331923e+04 </wgt>
<wgt id='1208'> +7.5182980e+04 </wgt>
<wgt id='1209'> +7.3796005e+04 </wgt>
<wgt id='1210'> +7.8117640e+04 </wgt>
<wgt id='1211'> +7.4697023e+04 </wgt>
<wgt id='1212'> +7.6521152e+04 </wgt>
<wgt id='1213'> +7.4836224e+04 </wgt>
<wgt id='1214'> +7.4709412e+04 </wgt>
<wgt id='1215'> +7.4039297e+04 </wgt>
<wgt id='1216'> +7.3647259e+04 </wgt>
<wgt id='1217'> +7.3890327e+04 </wgt>
<wgt id='1218'> +7.4349790e+04 </wgt>
<wgt id='1219'> +7.4504420e+04 </wgt>
<wgt id='1220'> +7.4932528e+04 </wgt>
<wgt id='1221'> +7.5381730e+04 </wgt>
<wgt id='1222'> +7.5778187e+04 </wgt>
<wgt id='1223'> +7.3690529e+04 </wgt>
<wgt id='1224'> +7.3614622e+04 </wgt>
<wgt id='1225'> +7.3767419e+04 </wgt>
<wgt id='1226'> +7.3596490e+04 </wgt>
<wgt id='1227'> +7.4277478e+04 </wgt>
<wgt id='1228'> +7.3654758e+04 </wgt>
<wgt id='1229'> +7.3396088e+04 </wgt>
<wgt id='1230'> +7.3601681e+04 </wgt>
<wgt id='1231'> +7.3416897e+04 </wgt>
<wgt id='1232'> +7.3709299e+04 </wgt>
<wgt id='1233'> +7.2935230e+04 </wgt>
<wgt id='1234'> +7.3638259e+04 </wgt>
<wgt id='1235'> +7.3978915e+04 </wgt>
<wgt id='1236'> +7.3783955e+04 </wgt>
<wgt id='1237'> +7.4168881e+04 </wgt>
<wgt id='1238'> +7.3081035e+04 </wgt>
<wgt id='1239'> +7.4060323e+04 </wgt>
<wgt id='1240'> +7.3455817e+04 </wgt>
<wgt id='1241'> +7.3924534e+04 </wgt>
<wgt id='1242'> +7.3651941e+04 </wgt>
<wgt id='1243'> +7.3345280e+04 </wgt>
<wgt id='1244'> +7.4209604e+04 </wgt>
<wgt id='1245'> +7.3825996e+04 </wgt>
<wgt id='1246'> +7.3771999e+04 </wgt>
<wgt id='1247'> +7.3779618e+04 </wgt>
<wgt id='1248'> +7.3261963e+04 </wgt>
<wgt id='1249'> +7.3534579e+04 </wgt>
<wgt id='1250'> +7.4110932e+04 </wgt>
<wgt id='1251'> +7.3600023e+04 </wgt>
<wgt id='1252'> +7.3880336e+04 </wgt>
<wgt id='1253'> +7.3536935e+04 </wgt>
<wgt id='1254'> +7.4165124e+04 </wgt>
<wgt id='1255'> +7.3158991e+04 </wgt>
<wgt id='1256'> +7.4151870e+04 </wgt>
<wgt id='1257'> +7.3735762e+04 </wgt>
<wgt id='1258'> +7.3552784e+04 </wgt>
<wgt id='1259'> +7.3252001e+04 </wgt>
<wgt id='1260'> +7.3607271e+04 </wgt>
<wgt id='1261'> +7.3214218e+04 </wgt>
<wgt id='1262'> +7.3616498e+04 </wgt>
<wgt id='1263'> +7.3708330e+04 </wgt>
<wgt id='1264'> +7.3172740e+04 </wgt>
<wgt id='1265'> +7.3640311e+04 </wgt>
<wgt id='1266'> +7.4102766e+04 </wgt>
<wgt id='1267'> +7.3472153e+04 </wgt>
<wgt id='1268'> +7.3713850e+04 </wgt>
<wgt id='1269'> +7.3560628e+04 </wgt>
<wgt id='1270'> +7.3841926e+04 </wgt>
<wgt id='1271'> +7.3986778e+04 </wgt>
<wgt id='1272'> +7.3569905e+04 </wgt>
<wgt id='1273'> +7.3833237e+04 </wgt>
<wgt id='1274'> +7.3843133e+04 </wgt>
<wgt id='1275'> +7.3705144e+04 </wgt>
<wgt id='1276'> +7.3786439e+04 </wgt>
<wgt id='1277'> +7.3800001e+04 </wgt>
<wgt id='1278'> +7.3635164e+04 </wgt>
<wgt id='1279'> +7.3683427e+04 </wgt>
<wgt id='1280'> +7.3669339e+04 </wgt>
<wgt id='1281'> +7.3813410e+04 </wgt>
<wgt id='1282'> +7.3739448e+04 </wgt>
<wgt id='1283'> +7.3630846e+04 </wgt>
<wgt id='1284'> +7.3732212e+04 </wgt>
<wgt id='1285'> +7.3787901e+04 </wgt>
<wgt id='1286'> +7.3771069e+04 </wgt>
<wgt id='1287'> +7.3666947e+04 </wgt>
<wgt id='1288'> +7.3735501e+04 </wgt>
<wgt id='1289'> +7.3833197e+04 </wgt>
<wgt id='1290'> +7.3557363e+04 </wgt>
<wgt id='1291'> +7.3554606e+04 </wgt>
<wgt id='1292'> +7.3700638e+04 </wgt>
<wgt id='1293'> +7.3659603e+04 </wgt>
<wgt id='1294'> +7.3658388e+04 </wgt>
<wgt id='1295'> +7.3740758e+04 </wgt>
<wgt id='1296'> +7.3553200e+04 </wgt>
<wgt id='1297'> +7.3780037e+04 </wgt>
<wgt id='1298'> +7.3868470e+04 </wgt>
<wgt id='1299'> +7.3643237e+04 </wgt>
<wgt id='1300'> +7.3723156e+04 </wgt>
<wgt id='1301'> +7.3663504e+04 </wgt>
<wgt id='1302'> +7.3853538e+04 </wgt>
<wgt id='1303'> +7.3599929e+04 </wgt>
<wgt id='1304'> +7.3628967e+04 </wgt>
<wgt id='1305'> +7.3641651e+04 </wgt>
<wgt id='1306'> +7.3648053e+04 </wgt>
<wgt id='1307'> +7.3719699e+04 </wgt>
<wgt id='1308'> +7.3619856e+04 </wgt>
<wgt id='1309'> +7.3657921e+04 </wgt>
<wgt id='1310'> +7.3605682e+04 </wgt>
<wgt id='1311'> +7.3697669e+04 </wgt>
<wgt id='1312'> +7.3749313e+04 </wgt>
<wgt id='1313'> +7.3660038e+04 </wgt>
<wgt id='1314'> +7.3745137e+04 </wgt>
<wgt id='1315'> +7.3756756e+04 </wgt>
<wgt id='1316'> +7.3757398e+04 </wgt>
<wgt id='1317'> +7.3694720e+04 </wgt>
<wgt id='1318'> +7.3681651e+04 </wgt>
<wgt id='1319'> +7.3706376e+04 </wgt>
<wgt id='1320'> +7.3683532e+04 </wgt>
<wgt id='1321'> +7.3645843e+04 </wgt>
<wgt id='1322'> +7.3665164e+04 </wgt>
<wgt id='1323'> +7.3744701e+04 </wgt>
<wgt id='1324'> +7.3504856e+04 </wgt>
<wgt id='1325'> +7.4184026e+04 </wgt>
<wgt id='1326'> +7.1249529e+04 </wgt>
<wgt id='1327'> +6.8293292e+04 </wgt>
<wgt id='1328'> +7.4644498e+04 </wgt>
<wgt id='1329'> +7.4797754e+04 </wgt>
<wgt id='1330'> +7.5179835e+04 </wgt>
<wgt id='1331'> +7.2521116e+04 </wgt>
<wgt id='1332'> +7.7072721e+04 </wgt>
<wgt id='1333'> +7.7192660e+04 </wgt>
<wgt id='1334'> +7.5690384e+04 </wgt>
<wgt id='1335'> +7.4688897e+04 </wgt>
<wgt id='1336'> +7.6591540e+04 </wgt>
<wgt id='1337'> +7.5224336e+04 </wgt>
<wgt id='1338'> +7.2054404e+04 </wgt>
<wgt id='1339'> +7.3557988e+04 </wgt>
<wgt id='1340'> +7.5489973e+04 </wgt>
<wgt id='1341'> +7.3291407e+04 </wgt>
<wgt id='1342'> +7.5996389e+04 </wgt>
<wgt id='1343'> +7.4908723e+04 </wgt>
<wgt id='1344'> +7.6421702e+04 </wgt>
<wgt id='1345'> +7.3048036e+04 </wgt>
<wgt id='1346'> +7.4272210e+04 </wgt>
<wgt id='1347'> +7.4467406e+04 </wgt>
<wgt id='1348'> +7.5658543e+04 </wgt>
<wgt id='1349'> +7.2418516e+04 </wgt>
<wgt id='1350'> +7.4061328e+04 </wgt>
<wgt id='1351'> +7.4012398e+04 </wgt>
<wgt id='1352'> +7.3802318e+04 </wgt>
<wgt id='1353'> +7.6601455e+04 </wgt>
<wgt id='1354'> +7.2929108e+04 </wgt>
<wgt id='1355'> +7.4000888e+04 </wgt>
<wgt id='1356'> +7.4592604e+04 </wgt>
<wgt id='1357'> +7.4370218e+04 </wgt>
<wgt id='1358'> +7.4109724e+04 </wgt>
<wgt id='1359'> +7.3826983e+04 </wgt>
<wgt id='1360'> +7.4823674e+04 </wgt>
<wgt id='1361'> +7.6913418e+04 </wgt>
<wgt id='1362'> +7.2139988e+04 </wgt>
<wgt id='1363'> +7.2889972e+04 </wgt>
<wgt id='1364'> +7.4053069e+04 </wgt>
<wgt id='1365'> +7.6430379e+04 </wgt>
<wgt id='1366'> +7.5693443e+04 </wgt>
<wgt id='1367'> +7.4593456e+04 </wgt>
<wgt id='1368'> +7.2392193e+04 </wgt>
<wgt id='1369'> +7.9267723e+04 </wgt>
<wgt id='1370'> +7.2666351e+04 </wgt>
<wgt id='1371'> +7.7042855e+04 </wgt>
<wgt id='1372'> +7.5869444e+04 </wgt>
<wgt id='1373'> +7.3992610e+04 </wgt>
<wgt id='1374'> +7.3637678e+04 </wgt>
<wgt id='1375'> +7.4370469e+04 </wgt>
<wgt id='1376'> +7.0875207e+04 </wgt>
<wgt id='1377'> +7.4321040e+04 </wgt>
<wgt id='1378'> +7.4687551e+04 </wgt>
<wgt id='1379'> +7.4309166e+04 </wgt>
<wgt id='1380'> +7.6768417e+04 </wgt>
<wgt id='1381'> +7.3888818e+04 </wgt>
<wgt id='1382'> +7.4435738e+04 </wgt>
<wgt id='1383'> +7.2309620e+04 </wgt>
<wgt id='1384'> +7.4795738e+04 </wgt>
<wgt id='1385'> +7.2677695e+04 </wgt>
<wgt id='1386'> +7.5511091e+04 </wgt>
<wgt id='1387'> +7.5249225e+04 </wgt>
<wgt id='1388'> +7.4628722e+04 </wgt>
<wgt id='1389'> +7.4011345e+04 </wgt>
<wgt id='1390'> +7.3111555e+04 </wgt>
<wgt id='1391'> +7.4225309e+04 </wgt>
<wgt id='1392'> +7.1608788e+04 </wgt>
<wgt id='1393'> +7.5199257e+04 </wgt>
<wgt id='1394'> +7.6430379e+04 </wgt>
<wgt id='1395'> +7.3573052e+04 </wgt>
<wgt id='1396'> +7.5765153e+04 </wgt>
<wgt id='1397'> +7.5436074e+04 </wgt>
<wgt id='1398'> +7.5555109e+04 </wgt>
<wgt id='1399'> +7.2392551e+04 </wgt>
<wgt id='1400'> +7.4590820e+04 </wgt>
<wgt id='1401'> +7.2139627e+04 </wgt>
<wgt id='1402'> +7.5727614e+04 </wgt>
<wgt id='1403'> +7.5591507e+04 </wgt>
<wgt id='1404'> +7.3544241e+04 </wgt>
<wgt id='1405'> +7.8520230e+04 </wgt>
<wgt id='1406'> +7.5601598e+04 </wgt>
<wgt id='1407'> +7.3563143e+04 </wgt>
<wgt id='1408'> +7.6085542e+04 </wgt>
<wgt id='1409'> +7.4624836e+04 </wgt>
<wgt id='1410'> +7.6594392e+04 </wgt>
<wgt id='1411'> +7.2978410e+04 </wgt>
<wgt id='1412'> +7.4837378e+04 </wgt>
<wgt id='1413'> +7.5049728e+04 </wgt>
<wgt id='1414'> +7.4914380e+04 </wgt>
<wgt id='1415'> +7.4583129e+04 </wgt>
<wgt id='1416'> +7.4639485e+04 </wgt>
<wgt id='1417'> +7.6632784e+04 </wgt>
<wgt id='1418'> +7.5894606e+04 </wgt>
<wgt id='1419'> +7.3931035e+04 </wgt>
<wgt id='1420'> +7.5353778e+04 </wgt>
<wgt id='1421'> +7.4626596e+04 </wgt>
<wgt id='1422'> +7.4338375e+04 </wgt>
<wgt id='1423'> +7.4197269e+04 </wgt>
<wgt id='1424'> +7.2808687e+04 </wgt>
<wgt id='1425'> +7.7324464e+04 </wgt>
<wgt id='1426'> +7.4251476e+04 </wgt>
<wgt id='1427'> +7.3728298e+04 </wgt>
<wgt id='1428'> +7.6293991e+04 </wgt>
<wgt id='1429'> +7.5286786e+04 </wgt>
<wgt id='1430'> +7.4084382e+04 </wgt>
<wgt id='1431'> +7.4645168e+04 </wgt>
<wgt id='1432'> +7.4418107e+04 </wgt>
<wgt id='1433'> +7.4732584e+04 </wgt>
<wgt id='1434'> +7.4727118e+04 </wgt>
<wgt id='1435'> +7.4918598e+04 </wgt>
<wgt id='1436'> +7.3887444e+04 </wgt>
<wgt id='1437'> +7.4976064e+04 </wgt>
<wgt id='1438'> +7.4709587e+04 </wgt>
<wgt id='1439'> +7.5094511e+04 </wgt>
<wgt id='1440'> +7.4467453e+04 </wgt>
<wgt id='1441'> +7.4472315e+04 </wgt>
<wgt id='1442'> +7.3874025e+04 </wgt>
<wgt id='1443'> +7.4444289e+04 </wgt>
<wgt id='1444'> +7.4864334e+04 </wgt>
<wgt id='1445'> +7.4477855e+04 </wgt>
<wgt id='1446'> +7.4737240e+04 </wgt>
<wgt id='1447'> +7.5196117e+04 </wgt>
<wgt id='1448'> +7.4985800e+04 </wgt>
<wgt id='1449'> +7.4534780e+04 </wgt>
<wgt id='1450'> +7.4832685e+04 </wgt>
<wgt id='1451'> +7.4709123e+04 </wgt>
<wgt id='1452'> +7.4724235e+04 </wgt>
<wgt id='1453'> +7.4505497e+04 </wgt>
<wgt id='1454'> +7.4792287e+04 </wgt>
<wgt id='1455'> +7.4626311e+04 </wgt>
<wgt id='1456'> +7.4504890e+04 </wgt>
<wgt id='1457'> +7.4611647e+04 </wgt>
<wgt id='1458'> +7.4671823e+04 </wgt>
<wgt id='1459'> +7.4871704e+04 </wgt>
<wgt id='1460'> +7.4648978e+04 </wgt>
<wgt id='1461'> +7.4596228e+04 </wgt>
<wgt id='1462'> +7.4595335e+04 </wgt>
<wgt id='1463'> +7.4660256e+04 </wgt>
<wgt id='1464'> +7.4574253e+04 </wgt>
<wgt id='1465'> +7.4662104e+04 </wgt>
<wgt id='1466'> +7.4488302e+04 </wgt>
<wgt id='1467'> +7.4663506e+04 </wgt>
<wgt id='1468'> +7.4649286e+04 </wgt>
<wgt id='1469'> +7.4660446e+04 </wgt>
<wgt id='1470'> +7.4726168e+04 </wgt>
<wgt id='1471'> +7.4615866e+04 </wgt>
<wgt id='1472'> +7.4638912e+04 </wgt>
<wgt id='1473'> +7.4718632e+04 </wgt>
<wgt id='1474'> +7.4664616e+04 </wgt>
<wgt id='1475'> +7.4633042e+04 </wgt>
<wgt id='1476'> +7.4676047e+04 </wgt>
<wgt id='1477'> +7.4609446e+04 </wgt>
<wgt id='1478'> +7.4604521e+04 </wgt>
<wgt id='1479'> +7.4613868e+04 </wgt>
<wgt id='1480'> +7.4670958e+04 </wgt>
<wgt id='1481'> +7.4661172e+04 </wgt>
<wgt id='1482'> +7.5286786e+04 </wgt>
<wgt id='1483'> +7.4084382e+04 </wgt>
<wgt id='1484'> +7.4076557e+04 </wgt>
<wgt id='1485'> +7.3335480e+04 </wgt>
<wgt id='1486'> +7.4958634e+04 </wgt>
<wgt id='1487'> +7.3999035e+04 </wgt>
<wgt id='1488'> +7.3528504e+04 </wgt>
<wgt id='1489'> +7.1703834e+04 </wgt>
<wgt id='1490'> +7.6838035e+04 </wgt>
<wgt id='1491'> +7.3518009e+04 </wgt>
<wgt id='1492'> +7.3100109e+04 </wgt>
<wgt id='1493'> +7.4858112e+04 </wgt>
<wgt id='1494'> +7.4440610e+04 </wgt>
<wgt id='1495'> +7.1987787e+04 </wgt>
<wgt id='1496'> +7.2560942e+04 </wgt>
<wgt id='1497'> +7.2727264e+04 </wgt>
<wgt id='1498'> +7.6167758e+04 </wgt>
<wgt id='1499'> +7.4022663e+04 </wgt>
<wgt id='1500'> +7.6431813e+04 </wgt>
<wgt id='1501'> +7.4732888e+04 </wgt>
<wgt id='1502'> +7.3395844e+04 </wgt>
<wgt id='1503'> +7.3276968e+04 </wgt>
<wgt id='1504'> +7.5007353e+04 </wgt>
<wgt id='1505'> +7.5471956e+04 </wgt>
<wgt id='1506'> +7.4748973e+04 </wgt>
<wgt id='1507'> +7.2876118e+04 </wgt>
<wgt id='1508'> +7.3121057e+04 </wgt>
<wgt id='1509'> +7.4102328e+04 </wgt>
<wgt id='1510'> +7.3744424e+04 </wgt>
<wgt id='1511'> +7.5057759e+04 </wgt>
<wgt id='1512'> +7.5983821e+04 </wgt>
<wgt id='1513'> +7.1840667e+04 </wgt>
<wgt id='1514'> +7.0644456e+04 </wgt>
<wgt id='1515'> +7.5239237e+04 </wgt>
<wgt id='1516'> +7.5077065e+04 </wgt>
<wgt id='1517'> +7.5410548e+04 </wgt>
<wgt id='1518'> +7.3807638e+04 </wgt>
<wgt id='1519'> +7.4305114e+04 </wgt>
<wgt id='1520'> +7.7468060e+04 </wgt>
<wgt id='1521'> +7.6047803e+04 </wgt>
<wgt id='1522'> +7.3937867e+04 </wgt>
<wgt id='1523'> +7.3298166e+04 </wgt>
<wgt id='1524'> +7.4705180e+04 </wgt>
<wgt id='1525'> +7.4680506e+04 </wgt>
<wgt id='1526'> +7.2480554e+04 </wgt>
<wgt id='1527'> +7.4575003e+04 </wgt>
<wgt id='1528'> +7.3094683e+04 </wgt>
<wgt id='1529'> +7.2698362e+04 </wgt>
<wgt id='1530'> +7.3497859e+04 </wgt>
<wgt id='1531'> +7.4125706e+04 </wgt>
<wgt id='1532'> +7.7412970e+04 </wgt>
<wgt id='1533'> +7.6370389e+04 </wgt>
<wgt id='1534'> +7.3285993e+04 </wgt>
<wgt id='1535'> +7.4347701e+04 </wgt>
<wgt id='1536'> +7.4785684e+04 </wgt>
<wgt id='1537'> +7.4052478e+04 </wgt>
<wgt id='1538'> +7.0148703e+04 </wgt>
<wgt id='1539'> +7.3295763e+04 </wgt>
<wgt id='1540'> +7.3404626e+04 </wgt>
<wgt id='1541'> +7.5923256e+04 </wgt>
<wgt id='1542'> +7.2586636e+04 </wgt>
<wgt id='1543'> +7.3233178e+04 </wgt>
<wgt id='1544'> +7.4251391e+04 </wgt>
<wgt id='1545'> +7.5417714e+04 </wgt>
<wgt id='1546'> +7.3989140e+04 </wgt>
<wgt id='1547'> +7.3140179e+04 </wgt>
<wgt id='1548'> +7.4160071e+04 </wgt>
<wgt id='1549'> +7.2770535e+04 </wgt>
<wgt id='1550'> +7.3795343e+04 </wgt>
<wgt id='1551'> +7.4292247e+04 </wgt>
<wgt id='1552'> +7.4712271e+04 </wgt>
<wgt id='1553'> +7.4575570e+04 </wgt>
<wgt id='1554'> +7.5977182e+04 </wgt>
<wgt id='1555'> +7.1322750e+04 </wgt>
<wgt id='1556'> +7.1285596e+04 </wgt>
<wgt id='1557'> +7.3216582e+04 </wgt>
<wgt id='1558'> +7.4185769e+04 </wgt>
<wgt id='1559'> +7.2949957e+04 </wgt>
<wgt id='1560'> +7.6160686e+04 </wgt>
<wgt id='1561'> +7.3234228e+04 </wgt>
<wgt id='1562'> +7.3608238e+04 </wgt>
<wgt id='1563'> +7.1841384e+04 </wgt>
<wgt id='1564'> +7.6187870e+04 </wgt>
<wgt id='1565'> +7.6711254e+04 </wgt>
<wgt id='1566'> +7.5731858e+04 </wgt>
<wgt id='1567'> +7.4773333e+04 </wgt>
<wgt id='1568'> +7.3444862e+04 </wgt>
<wgt id='1569'> +7.2762854e+04 </wgt>
<wgt id='1570'> +7.5182410e+04 </wgt>
<wgt id='1571'> +7.3088736e+04 </wgt>
<wgt id='1572'> +7.3541548e+04 </wgt>
<wgt id='1573'> +7.3293348e+04 </wgt>
<wgt id='1574'> +7.1864316e+04 </wgt>
<wgt id='1575'> +7.6019954e+04 </wgt>
<wgt id='1576'> +7.4187698e+04 </wgt>
<wgt id='1577'> +7.3352270e+04 </wgt>
<wgt id='1578'> +7.4718810e+04 </wgt>
<wgt id='1579'> +7.3149590e+04 </wgt>
<wgt id='1580'> +7.2914593e+04 </wgt>
<wgt id='1581'> +7.5111871e+04 </wgt>
<wgt id='1582'> +7.5413124e+04 </wgt>
<wgt id='1583'> +7.5763953e+04 </wgt>
<wgt id='1584'> +7.4077752e+04 </wgt>
<wgt id='1585'> +7.5336933e+04 </wgt>
<wgt id='1586'> +7.0458713e+04 </wgt>
<wgt id='1587'> +7.5968137e+04 </wgt>
<wgt id='1588'> +7.5286786e+04 </wgt>
<wgt id='1589'> +7.4851053e+04 </wgt>
<wgt id='1590'> +7.4444032e+04 </wgt>
<wgt id='1591'> +7.4084382e+04 </wgt>
<wgt id='1592'> +7.3766699e+04 </wgt>
<wgt id='1593'> +7.1373526e+04 </wgt>
<wgt id='1594'> +7.0488301e+04 </wgt>
<wgt id='1595'> +6.9466230e+04 </wgt>
<wgt id='1596'> +7.0650752e+04 </wgt>
<wgt id='1597'> +7.2068456e+04 </wgt>
<wgt id='1598'> +6.9445284e+04 </wgt>
<wgt id='1599'> +7.2574120e+04 </wgt>
<wgt id='1600'> +6.9880482e+04 </wgt>
<wgt id='1601'> +7.2459572e+04 </wgt>
<wgt id='1602'> +6.7637611e+04 </wgt>
<wgt id='1603'> +7.4498492e+04 </wgt>
<wgt id='1604'> +7.1221502e+04 </wgt>
<wgt id='1605'> +7.2173577e+04 </wgt>
<wgt id='1606'> +7.0931518e+04 </wgt>
<wgt id='1607'> +7.1123997e+04 </wgt>
<wgt id='1608'> +7.1113940e+04 </wgt>
<wgt id='1609'> +7.0524768e+04 </wgt>
<wgt id='1610'> +7.2400388e+04 </wgt>
<wgt id='1611'> +7.0016932e+04 </wgt>
<wgt id='1612'> +7.2264929e+04 </wgt>
<wgt id='1613'> +6.8893804e+04 </wgt>
<wgt id='1614'> +7.1843160e+04 </wgt>
<wgt id='1615'> +7.0580148e+04 </wgt>
<wgt id='1616'> +7.1545160e+04 </wgt>
<wgt id='1617'> +7.0230485e+04 </wgt>
<wgt id='1618'> +7.1284712e+04 </wgt>
<wgt id='1619'> +7.1751950e+04 </wgt>
<wgt id='1620'> +7.1144075e+04 </wgt>
<wgt id='1621'> +7.1227957e+04 </wgt>
<wgt id='1622'> +7.1276444e+04 </wgt>
<wgt id='1623'> +7.0354469e+04 </wgt>
<wgt id='1624'> +7.1198438e+04 </wgt>
<wgt id='1625'> +7.0651389e+04 </wgt>
<wgt id='1626'> +7.0215063e+04 </wgt>
<wgt id='1627'> +7.1841453e+04 </wgt>
<wgt id='1628'> +7.2070848e+04 </wgt>
<wgt id='1629'> +7.0814908e+04 </wgt>
<wgt id='1630'> +7.0728976e+04 </wgt>
<wgt id='1631'> +7.1137853e+04 </wgt>
<wgt id='1632'> +7.1169960e+04 </wgt>
<wgt id='1633'> +7.0898177e+04 </wgt>
<wgt id='1634'> +7.2127955e+04 </wgt>
<wgt id='1635'> +7.0304195e+04 </wgt>
<wgt id='1636'> +7.0892933e+04 </wgt>
<wgt id='1637'> +7.1691833e+04 </wgt>
<wgt id='1638'> +7.0991466e+04 </wgt>
<wgt id='1639'> +7.1504212e+04 </wgt>
<wgt id='1640'> +7.1778335e+04 </wgt>
<wgt id='1641'> +7.0425681e+04 </wgt>
<wgt id='1642'> +7.0695101e+04 </wgt>
<wgt id='1643'> +7.1620531e+04 </wgt>
<wgt id='1644'> +7.2599523e+04 </wgt>
<wgt id='1645'> +6.9012762e+04 </wgt>
<wgt id='1646'> +7.1219245e+04 </wgt>
<wgt id='1647'> +7.1594818e+04 </wgt>
<wgt id='1648'> +7.1784414e+04 </wgt>
<wgt id='1649'> +7.0772378e+04 </wgt>
<wgt id='1650'> +7.1481186e+04 </wgt>
<wgt id='1651'> +7.1213461e+04 </wgt>
<wgt id='1652'> +7.1362032e+04 </wgt>
<wgt id='1653'> +7.1351740e+04 </wgt>
<wgt id='1654'> +7.1430427e+04 </wgt>
<wgt id='1655'> +7.1524027e+04 </wgt>
<wgt id='1656'> +7.3189259e+04 </wgt>
<wgt id='1657'> +7.1321139e+04 </wgt>
<wgt id='1658'> +7.2782641e+04 </wgt>
<wgt id='1659'> +7.3995754e+04 </wgt>
<wgt id='1660'> +7.2438619e+04 </wgt>
<wgt id='1661'> +7.4393769e+04 </wgt>
<wgt id='1662'> +7.1530041e+04 </wgt>
<wgt id='1663'> +7.2280638e+04 </wgt>
<wgt id='1664'> +7.2399730e+04 </wgt>
<wgt id='1665'> +7.2799911e+04 </wgt>
<wgt id='1666'> +7.2723916e+04 </wgt>
<wgt id='1667'> +7.3814839e+04 </wgt>
<wgt id='1668'> +7.2504311e+04 </wgt>
<wgt id='1669'> +7.3938518e+04 </wgt>
<wgt id='1670'> +7.1673091e+04 </wgt>
<wgt id='1671'> +7.3528840e+04 </wgt>
<wgt id='1672'> +7.2587862e+04 </wgt>
<wgt id='1673'> +7.1396276e+04 </wgt>
<wgt id='1674'> +7.4187784e+04 </wgt>
<wgt id='1675'> +7.4063748e+04 </wgt>
<wgt id='1676'> +7.2342681e+04 </wgt>
<wgt id='1677'> +7.2764117e+04 </wgt>
<wgt id='1678'> +7.3326604e+04 </wgt>
<wgt id='1679'> +7.2029494e+04 </wgt>
<wgt id='1680'> +7.4833348e+04 </wgt>
<wgt id='1681'> +7.4254180e+04 </wgt>
<wgt id='1682'> +7.1400728e+04 </wgt>
<wgt id='1683'> +7.3007584e+04 </wgt>
<wgt id='1684'> +7.3195148e+04 </wgt>
<wgt id='1685'> +7.3065145e+04 </wgt>
<wgt id='1686'> +7.2735308e+04 </wgt>
<wgt id='1687'> +7.4215463e+04 </wgt>
<wgt id='1688'> +7.1234530e+04 </wgt>
<wgt id='1689'> +7.3671557e+04 </wgt>
<wgt id='1690'> +7.2672688e+04 </wgt>
<wgt id='1691'> +7.3481803e+04 </wgt>
<wgt id='1692'> +7.2132858e+04 </wgt>
<wgt id='1693'> +7.5617740e+04 </wgt>
<wgt id='1694'> +7.1338967e+04 </wgt>
<wgt id='1695'> +7.2531732e+04 </wgt>
<wgt id='1696'> +7.3263397e+04 </wgt>
<wgt id='1697'> +7.3790214e+04 </wgt>
<wgt id='1698'> +7.2269163e+04 </wgt>
<wgt id='1699'> +7.1761175e+04 </wgt>
<wgt id='1700'> +7.4780623e+04 </wgt>
<wgt id='1701'> +7.1988983e+04 </wgt>
<wgt id='1702'> +7.4544061e+04 </wgt>
<wgt id='1703'> +7.3622507e+04 </wgt>
<wgt id='1704'> +7.3072820e+04 </wgt>
<wgt id='1705'> +7.3057386e+04 </wgt>
<wgt id='1706'> +7.3004132e+04 </wgt>
<wgt id='1707'> +7.0967111e+04 </wgt>
<wgt id='1708'> +7.4779331e+04 </wgt>
<wgt id='1709'> +7.3719284e+04 </wgt>
<wgt id='1710'> +7.2781298e+04 </wgt>
<wgt id='1711'> +7.2080239e+04 </wgt>
<wgt id='1712'> +7.3174994e+04 </wgt>
<wgt id='1713'> +7.2729855e+04 </wgt>
<wgt id='1714'> +7.3261601e+04 </wgt>
<wgt id='1715'> +6.9573012e+04 </wgt>
<wgt id='1716'> +7.3101552e+04 </wgt>
<wgt id='1717'> +7.1187554e+04 </wgt>
<wgt id='1718'> +7.1030370e+04 </wgt>
<wgt id='1719'> +7.1385977e+04 </wgt>
<wgt id='1720'> +7.0804058e+04 </wgt>
<wgt id='1721'> +7.1538732e+04 </wgt>
<wgt id='1722'> +7.0922799e+04 </wgt>
<wgt id='1723'> +7.1622313e+04 </wgt>
<wgt id='1724'> +7.1700076e+04 </wgt>
<wgt id='1725'> +7.0771373e+04 </wgt>
<wgt id='1726'> +7.1155630e+04 </wgt>
<wgt id='1727'> +7.1219835e+04 </wgt>
<wgt id='1728'> +7.0220778e+04 </wgt>
<wgt id='1729'> +7.2129531e+04 </wgt>
<wgt id='1730'> +7.1546074e+04 </wgt>
<wgt id='1731'> +7.0932773e+04 </wgt>
<wgt id='1732'> +7.1674128e+04 </wgt>
<wgt id='1733'> +7.1674128e+04 </wgt>
<wgt id='1734'> +7.1044341e+04 </wgt>
<wgt id='1735'> +7.1282402e+04 </wgt>
<wgt id='1736'> +7.0753921e+04 </wgt>
<wgt id='1737'> +7.1793353e+04 </wgt>
<wgt id='1738'> +7.1409014e+04 </wgt>
<wgt id='1739'> +7.0761410e+04 </wgt>
<wgt id='1740'> +7.1109961e+04 </wgt>
<wgt id='1741'> +7.1372976e+04 </wgt>
<wgt id='1742'> +7.1068827e+04 </wgt>
<wgt id='1743'> +7.1328562e+04 </wgt>
<wgt id='1744'> +7.1440886e+04 </wgt>
<wgt id='1745'> +7.0494746e+04 </wgt>
<wgt id='1746'> +7.1391062e+04 </wgt>
<wgt id='1747'> +7.1047987e+04 </wgt>
<wgt id='1748'> +7.1614525e+04 </wgt>
<wgt id='1749'> +6.9855842e+04 </wgt>
<wgt id='1750'> +7.1608199e+04 </wgt>
<wgt id='1751'> +7.0738552e+04 </wgt>
<wgt id='1752'> +7.1241031e+04 </wgt>
<wgt id='1753'> +7.1126224e+04 </wgt>
<wgt id='1754'> +7.0953545e+04 </wgt>
<wgt id='1755'> +7.1319570e+04 </wgt>
<wgt id='1756'> +7.1284478e+04 </wgt>
<wgt id='1757'> +7.0990948e+04 </wgt>
<wgt id='1758'> +7.1312738e+04 </wgt>
<wgt id='1759'> +7.0998567e+04 </wgt>
<wgt id='1760'> +7.0848305e+04 </wgt>
<wgt id='1761'> +7.1586540e+04 </wgt>
<wgt id='1762'> +7.1122434e+04 </wgt>
<wgt id='1763'> +7.0993139e+04 </wgt>
<wgt id='1764'> +7.1116307e+04 </wgt>
<wgt id='1765'> +7.1471277e+04 </wgt>
<wgt id='1766'> +7.1538181e+04 </wgt>
<wgt id='1767'> +7.0715841e+04 </wgt>
<wgt id='1768'> +7.1359431e+04 </wgt>
<wgt id='1769'> +7.1000403e+04 </wgt>
<wgt id='1770'> +7.0619462e+04 </wgt>
<wgt id='1771'> +7.1571872e+04 </wgt>
<wgt id='1772'> +7.0873541e+04 </wgt>
<wgt id='1773'> +7.1873298e+04 </wgt>
<wgt id='1774'> +7.0413194e+04 </wgt>
<wgt id='1775'> +7.1687370e+04 </wgt>
<wgt id='1776'> +7.1681129e+04 </wgt>
<wgt id='1777'> +7.0972039e+04 </wgt>
<wgt id='1778'> +7.0689347e+04 </wgt>
<wgt id='1779'> +7.1059069e+04 </wgt>
<wgt id='1780'> +7.2175599e+04 </wgt>
<wgt id='1781'> +7.1431556e+04 </wgt>
<wgt id='1782'> +7.1187554e+04 </wgt>
<wgt id='1783'> +7.1353358e+04 </wgt>
<wgt id='1784'> +7.1591484e+04 </wgt>
<wgt id='1785'> +7.1851510e+04 </wgt>
<wgt id='1786'> +7.0242955e+04 </wgt>
<wgt id='1787'> +7.1538833e+04 </wgt>
<wgt id='1788'> +7.0295768e+04 </wgt>
<wgt id='1789'> +7.1694218e+04 </wgt>
<wgt id='1790'> +7.1923498e+04 </wgt>
<wgt id='1791'> +7.1816229e+04 </wgt>
<wgt id='1792'> +7.1055475e+04 </wgt>
<wgt id='1793'> +7.1673345e+04 </wgt>
<wgt id='1794'> +7.1477821e+04 </wgt>
<wgt id='1795'> +7.1591805e+04 </wgt>
<wgt id='1796'> +7.1937027e+04 </wgt>
<wgt id='1797'> +7.1459390e+04 </wgt>
<wgt id='1798'> +7.1759480e+04 </wgt>
<wgt id='1799'> +7.2117775e+04 </wgt>
<wgt id='1800'> +7.1901755e+04 </wgt>
<wgt id='1801'> +7.1946206e+04 </wgt>
<wgt id='1802'> +7.1869236e+04 </wgt>
<wgt id='1803'> +7.1302076e+04 </wgt>
<wgt id='1804'> +7.1768958e+04 </wgt>
<wgt id='1805'> +6.9931991e+04 </wgt>
<wgt id='1806'> +7.1477766e+04 </wgt>
<wgt id='1807'> +7.1521880e+04 </wgt>
<wgt id='1808'> +7.1627047e+04 </wgt>
<wgt id='1809'> +7.1626127e+04 </wgt>
<wgt id='1810'> +7.1593046e+04 </wgt>
<wgt id='1811'> +7.1640694e+04 </wgt>
<wgt id='1812'> +7.1597361e+04 </wgt>
<wgt id='1813'> +7.1542442e+04 </wgt>
<wgt id='1814'> +7.1908860e+04 </wgt>
<wgt id='1815'> +7.1571902e+04 </wgt>
<wgt id='1816'> +7.1621371e+04 </wgt>
<wgt id='1817'> +7.1585288e+04 </wgt>
<wgt id='1818'> +7.1656797e+04 </wgt>
<wgt id='1819'> +7.1871563e+04 </wgt>
<wgt id='1820'> +7.1599261e+04 </wgt>
<wgt id='1821'> +7.1722710e+04 </wgt>
<wgt id='1822'> +7.1828549e+04 </wgt>
<wgt id='1823'> +7.1562834e+04 </wgt>
<wgt id='1824'> +7.1552120e+04 </wgt>
<wgt id='1825'> +7.1594843e+04 </wgt>
<wgt id='1826'> +7.2318491e+04 </wgt>
<wgt id='1827'> +6.6380600e+04 </wgt>
<wgt id='1828'> +6.6564577e+04 </wgt>
<wgt id='1829'> +6.6196645e+04 </wgt>
<wgt id='1830'> +6.6273094e+04 </wgt>
<wgt id='1831'> +6.6487046e+04 </wgt>
<wgt id='1832'> +6.6468798e+04 </wgt>
<wgt id='1833'> +6.6291638e+04 </wgt>
<wgt id='1834'> +6.5997429e+04 </wgt>
<wgt id='1835'> +6.6746940e+04 </wgt>
<wgt id='1836'> +6.6667368e+04 </wgt>
<wgt id='1837'> +6.6087925e+04 </wgt>
<wgt id='1838'> +6.6414994e+04 </wgt>
<wgt id='1839'> +6.6345076e+04 </wgt>
<wgt id='1840'> +6.6276493e+04 </wgt>
<wgt id='1841'> +6.6486519e+04 </wgt>
<wgt id='1842'> +6.6346559e+04 </wgt>
<wgt id='1843'> +6.6469390e+04 </wgt>
<wgt id='1844'> +6.6433793e+04 </wgt>
<wgt id='1845'> +6.6312455e+04 </wgt>
<wgt id='1846'> +6.6247544e+04 </wgt>
<wgt id='1847'> +6.6507321e+04 </wgt>
<wgt id='1848'> +6.6350813e+04 </wgt>
<wgt id='1849'> +6.6311319e+04 </wgt>
<wgt id='1850'> +6.7076058e+04 </wgt>
<wgt id='1851'> +6.5703915e+04 </wgt>
<wgt id='1852'> +6.7571972e+04 </wgt>
<wgt id='1853'> +6.5135893e+04 </wgt>
<wgt id='1854'> +6.7352313e+04 </wgt>
<wgt id='1855'> +6.5520505e+04 </wgt>
<wgt id='1856'> +7.0525435e+04 </wgt>
<wgt id='1857'> +7.0513648e+04 </wgt>
<wgt id='1858'> +7.0448376e+04 </wgt>
<wgt id='1859'> +7.0497455e+04 </wgt>
<wgt id='1860'> +7.0528232e+04 </wgt>
<wgt id='1861'> +7.0660694e+04 </wgt>
<wgt id='1862'> +7.0051827e+04 </wgt>
<wgt id='1863'> +7.0706478e+04 </wgt>
<wgt id='1864'> +7.0398229e+04 </wgt>
<wgt id='1865'> +7.0278660e+04 </wgt>
<wgt id='1866'> +7.0412295e+04 </wgt>
<wgt id='1867'> +7.0489287e+04 </wgt>
<wgt id='1868'> +7.0552695e+04 </wgt>
<wgt id='1869'> +7.0656645e+04 </wgt>
<wgt id='1870'> +7.0394842e+04 </wgt>
<wgt id='1871'> +7.0639588e+04 </wgt>
<wgt id='1872'> +7.0335857e+04 </wgt>
<wgt id='1873'> +7.0503370e+04 </wgt>
<wgt id='1874'> +7.0432841e+04 </wgt>
<wgt id='1875'> +7.0640206e+04 </wgt>
<wgt id='1876'> +7.0646036e+04 </wgt>
<wgt id='1877'> +7.0263908e+04 </wgt>
<wgt id='1878'> +7.0431278e+04 </wgt>
<wgt id='1879'> +7.0355989e+04 </wgt>
<wgt id='1880'> +7.0590455e+04 </wgt>
<wgt id='1881'> +7.0388248e+04 </wgt>
<wgt id='1882'> +7.0703699e+04 </wgt>
<wgt id='1883'> +7.0218259e+04 </wgt>
<wgt id='1884'> +7.0925256e+04 </wgt>
<wgt id='1885'> +7.0164390e+04 </wgt>
<wgt id='1886'> +8.5846044e+04 </wgt>
<wgt id='1887'> +8.3850216e+04 </wgt>
<wgt id='1888'> +6.7064379e+04 </wgt>
<wgt id='1889'> +7.2469564e+04 </wgt>
</rwgt>
</event>
<event npLO=" -1 " npNLO=" 0 ">
 5      0 +7.4519530e+04 1.67044580e+01 7.55820760e-03 1.20033590e-01
       -3 -1    0    0    0  501 +0.0000000000e+00 +0.0000000000e+00 +9.5117822739e+00 9.5117822739e+00 0.0000000000e+00 0.0000e+00 1.0000e+00
        4 -1    0    0  501    0 +0.0000000000e+00 +0.0000000000e+00 -1.6917136992e+02 1.6917136992e+02 0.0000000000e+00 0.0000e+00 -1.0000e+00
       24  2    1    2    0    0 +0.0000000000e+00 +0.0000000000e+00 -1.5965958765e+02 1.7868315220e+02 8.0227706877e+01 0.0000e+00 0.0000e+00
      -13  1    3    3    0    0 -4.8049135434e-01 -1.7895377869e+01 +1.2159466775e-01 1.7902240259e+01 0.0000000000e+00 0.0000e+00 1.0000e+00
       14  1    3    3    0    0 +4.8049135434e-01 +1.7895377869e+01 -1.5978118232e+02 1.6078091194e+02 0.0000000000e+00 0.0000e+00 -1.0000e+00
#aMCatNLO 1  0  0  1  2 0.16881457E+02 0.00000000E+00 -9  5  0 0.00000000E+00 0.00000000E+00 0.00000000E+00 0.00000000E+00 0.00000000E+00
<rwgt>
<wgt id='1001'> +7.4519530e+04 </wgt>
<wgt id='1002'> +7.5526397e+04 </wgt>
<wgt id='1003'> +7.3258503e+04 </wgt>
<wgt id='1004'> +7.6042101e+04 </wgt>
<wgt id='1005'> +7.8337028e+04 </wgt>
<wgt id='1006'> +7.3175020e+04 </wgt>
<wgt id='1007'> +7.0580696e+04 </wgt>
<wgt id='1008'> +7.0448836e+04 </wgt>
<wgt id='1009'> +7.0739756e+04 </wgt>
<wgt id='1010'> +7.4519530e+04 </wgt>
<wgt id='1011'> +7.5488163e+04 </wgt>
<wgt id='1012'> +7.4494203e+04 </wgt>
<wgt id='1013'> +7.5052126e+04 </wgt>
<wgt id='1014'> +7.1313285e+04 </wgt>
<wgt id='1015'> +7.7763450e+04 </wgt>
<wgt id='1016'> +7.2541463e+04 </wgt>
<wgt id='1017'> +7.3180921e+04 </wgt>
<wgt id='1018'> +7.5472163e+04 </wgt>
<wgt id='1019'> +7.2971737e+04 </wgt>
<wgt id='1020'> +7.6438687e+04 </wgt>
<wgt id='1021'> +7.5066423e+04 </wgt>
<wgt id='1022'> +7.2485983e+04 </wgt>
<wgt id='1023'> +7.3309766e+04 </wgt>
<wgt id='1024'> +7.4461041e+04 </wgt>
<wgt id='1025'> +7.1470825e+04 </wgt>
<wgt id='1026'> +7.6147533e+04 </wgt>
<wgt id='1027'> +7.4432085e+04 </wgt>
<wgt id='1028'> +7.6365125e+04 </wgt>
<wgt id='1029'> +7.4760969e+04 </wgt>
<wgt id='1030'> +7.4355091e+04 </wgt>
<wgt id='1031'> +7.4520224e+04 </wgt>
<wgt id='1032'> +7.3005000e+04 </wgt>
<wgt id='1033'> +7.5639857e+04 </wgt>
<wgt id='1034'> +7.6121449e+04 </wgt>
<wgt id='1035'> +7.4993856e+04 </wgt>
<wgt id='1036'> +7.4257157e+04 </wgt>
<wgt id='1037'> +7.3750826e+04 </wgt>
<wgt id='1038'> +7.4275674e+04 </wgt>
<wgt id='1039'> +7.3869801e+04 </wgt>
<wgt id='1040'> +7.4181724e+04 </wgt>
<wgt id='1041'> +7.3948668e+04 </wgt>
<wgt id='1042'> +7.4890011e+04 </wgt>
<wgt id='1043'> +7.4334832e+04 </wgt>
<wgt id='1044'> +7.4513631e+04 </wgt>
<wgt id='1045'> +7.4372392e+04 </wgt>
<wgt id='1046'> +7.4729432e+04 </wgt>
<wgt id='1047'> +7.4874798e+04 </wgt>
<wgt id='1048'> +7.4288249e+04 </wgt>
<wgt id='1049'> +7.4125494e+04 </wgt>
<wgt id='1050'> +7.4756704e+04 </wgt>
<wgt id='1051'> +7.4644391e+04 </wgt>
<wgt id='1052'> +7.4583915e+04 </wgt>
<wgt id='1053'> +7.5235125e+04 </wgt>
<wgt id='1054'> +7.4523431e+04 </wgt>
<wgt id='1055'> +7.4474103e+04 </wgt>
<wgt id='1056'> +7.4300150e+04 </wgt>
<wgt id='1057'> +7.4732488e+04 </wgt>
<wgt id='1058'> +7.4153986e+04 </wgt>
<wgt id='1059'> +7.4752478e+04 </wgt>
<wgt id='1060'> +7.4476290e+04 </wgt>
<wgt id='1061'> +7.4699846e+04 </wgt>
<wgt id='1062'> +7.4339291e+04 </wgt>
<wgt id='1063'> +7.4987098e+04 </wgt>
<wgt id='1064'> +7.4601371e+04 </wgt>
<wgt id='1065'> +7.4484630e+04 </wgt>
<wgt id='1066'> +7.3707251e+04 </wgt>
<wgt id='1067'> +7.4237299e+04 </wgt>
<wgt id='1068'> +7.4539406e+04 </wgt>
<wgt id='1069'> +7.4420950e+04 </wgt>
<wgt id='1070'> +7.4238945e+04 </wgt>
<wgt id='1071'> +7.4451141e+04 </wgt>
<wgt id='1072'> +7.4625979e+04 </wgt>
<wgt id='1073'> +7.4659060e+04 </wgt>
<wgt id='1074'> +7.4213339e+04 </wgt>
<wgt id='1075'> +7.4530111e+04 </wgt>
<wgt id='1076'> +7.4205297e+04 </wgt>
<wgt id='1077'> +7.4423919e+04 </wgt>
<wgt id='1078'> +7.4451319e+04 </wgt>
<wgt id='1079'> +7.4465267e+04 </wgt>
<wgt id='1080'> +7.4370413e+04 </wgt>
<wgt id='1081'> +7.4311832e+04 </wgt>
<wgt id='1082'> +7.4619204e+04 </wgt>
<wgt id='1083'> +7.4303081e+04 </wgt>
<wgt id='1084'> +7.4512234e+04 </wgt>
<wgt id='1085'> +7.4316860e+04 </wgt>
<wgt id='1086'> +7.4651687e+04 </wgt>
<wgt id='1087'> +7.4490981e+04 </wgt>
<wgt id='1088'> +7.4175862e+04 </wgt>
<wgt id='1089'> +7.4628360e+04 </wgt>
<wgt id='1090'> +7.4377846e+04 </wgt>
<wgt id='1091'> +7.4462962e+04 </wgt>
<wgt id='1092'> +7.4497946e+04 </wgt>
<wgt id='1093'> +7.4295593e+04 </wgt>
<wgt id='1094'> +7.4514914e+04 </wgt>
<wgt id='1095'> +7.4387962e+04 </wgt>
<wgt id='1096'> +7.4582331e+04 </wgt>
<wgt id='1097'> +7.4382282e+04 </wgt>
<wgt id='1098'> +7.4648894e+04 </wgt>
<wgt id='1099'> +7.4578938e+04 </wgt>
<wgt id='1100'> +7.4487683e+04 </wgt>
<wgt id='1101'> +7.4625676e+04 </wgt>
<wgt id='1102'> +7.4499182e+04 </wgt>
<wgt id='1103'> +7.4481342e+04 </wgt>
<wgt id='1104'> +7.4245410e+04 </wgt>
<wgt id='1105'> +7.4521744e+04 </wgt>
<wgt id='1106'> +7.4534388e+04 </wgt>
<wgt id='1107'> +7.4457284e+04 </wgt>
<wgt id='1108'> +7.4532681e+04 </wgt>
<wgt id='1109'> +7.4458204e+04 </wgt>
<wgt id='1110'> +7.4519526e+04 </wgt>
<wgt id='1111'> +6.9144407e+04 </wgt>
<wgt id='1112'> +7.6980235e+04 </wgt>
<wgt id='1113'> +7.4519526e+04 </wgt>
<wgt id='1114'> +5.5245389e+04 </wgt>
<wgt id='1115'> +7.8167230e+04 </wgt>
<wgt id='1116'> +7.8611512e+04 </wgt>
<wgt id='1117'> +7.6317043e+04 </wgt>
<wgt id='1118'> +7.2742038e+04 </wgt>
<wgt id='1119'> +6.0260564e+04 </wgt>
<wgt id='1120'> +7.6372316e+04 </wgt>
<wgt id='1121'> +8.3639190e+04 </wgt>
<wgt id='1122'> +8.0211209e+04 </wgt>
<wgt id='1123'> +7.0420861e+04 </wgt>
<wgt id='1124'> +7.2011160e+04 </wgt>
<wgt id='1125'> +8.1493742e+04 </wgt>
<wgt id='1126'> +8.1635289e+04 </wgt>
<wgt id='1127'> +7.2994478e+04 </wgt>
<wgt id='1128'> +7.9352592e+04 </wgt>
<wgt id='1129'> +7.8652112e+04 </wgt>
<wgt id='1130'> +5.2169349e+04 </wgt>
<wgt id='1131'> +8.3783966e+04 </wgt>
<wgt id='1132'> +7.6517616e+04 </wgt>
<wgt id='1133'> +8.4822674e+04 </wgt>
<wgt id='1134'> +7.7249168e+04 </wgt>
<wgt id='1135'> +7.2089550e+04 </wgt>
<wgt id='1136'> +7.1286418e+04 </wgt>
<wgt id='1137'> +7.9882905e+04 </wgt>
<wgt id='1138'> +8.1098942e+04 </wgt>
<wgt id='1139'> +7.0216212e+04 </wgt>
<wgt id='1140'> +4.9726302e+04 </wgt>
<wgt id='1141'> +7.9960788e+04 </wgt>
<wgt id='1142'> +6.5914925e+04 </wgt>
<wgt id='1143'> +6.1717426e+04 </wgt>
<wgt id='1144'> +6.3116544e+04 </wgt>
<wgt id='1145'> +8.4400298e+04 </wgt>
<wgt id='1146'> +7.2714878e+04 </wgt>
<wgt id='1147'> +7.9052420e+04 </wgt>
<wgt id='1148'> +6.5503941e+04 </wgt>
<wgt id='1149'> +7.4955263e+04 </wgt>
<wgt id='1150'> +8.3455324e+04 </wgt>
<wgt id='1151'> +6.8737440e+04 </wgt>
<wgt id='1152'> +8.0471564e+04 </wgt>
<wgt id='1153'> +7.6613845e+04 </wgt>
<wgt id='1154'> +7.4121765e+04 </wgt>
<wgt id='1155'> +7.8147702e+04 </wgt>
<wgt id='1156'> +6.5128498e+04 </wgt>
<wgt id='1157'> +6.4794600e+04 </wgt>
<wgt id='1158'> +8.5752854e+04 </wgt>
<wgt id='1159'> +6.7326335e+04 </wgt>
<wgt id='1160'> +7.6321628e+04 </wgt>
<wgt id='1161'> +7.9649695e+04 </wgt>
<wgt id='1162'> +6.6378389e+04 </wgt>
<wgt id='1163'> +6.3762400e+04 </wgt>
<wgt id='1164'> +7.6782342e+04 </wgt>
<wgt id='1165'> +7.8942350e+04 </wgt>
<wgt id='1166'> +6.5151197e+04 </wgt>
<wgt id='1167'> +7.0176691e+04 </wgt>
<wgt id='1168'> +7.4480034e+04 </wgt>
<wgt id='1169'> +7.7807137e+04 </wgt>
<wgt id='1170'> +7.1525074e+04 </wgt>
<wgt id='1171'> +7.9996628e+04 </wgt>
<wgt id='1172'> +6.4719598e+04 </wgt>
<wgt id='1173'> +6.7173161e+04 </wgt>
<wgt id='1174'> +7.2096842e+04 </wgt>
<wgt id='1175'> +8.0662196e+04 </wgt>
<wgt id='1176'> +5.9169398e+04 </wgt>
<wgt id='1177'> +8.1623669e+04 </wgt>
<wgt id='1178'> +7.6887087e+04 </wgt>
<wgt id='1179'> +7.8184668e+04 </wgt>
<wgt id='1180'> +8.1388545e+04 </wgt>
<wgt id='1181'> +6.5914847e+04 </wgt>
<wgt id='1182'> +7.5481324e+04 </wgt>
<wgt id='1183'> +7.3860600e+04 </wgt>
<wgt id='1184'> +6.8651026e+04 </wgt>
<wgt id='1185'> +7.8964372e+04 </wgt>
<wgt id='1186'> +8.7663406e+04 </wgt>
<wgt id='1187'> +8.6791302e+04 </wgt>
<wgt id='1188'> +7.8931228e+04 </wgt>
<wgt id='1189'> +5.9319409e+04 </wgt>
<wgt id='1190'> +8.4029271e+04 </wgt>
<wgt id='1191'> +7.7511598e+04 </wgt>
<wgt id='1192'> +7.5942137e+04 </wgt>
<wgt id='1193'> +6.4001485e+04 </wgt>
<wgt id='1194'> +7.4787906e+04 </wgt>
<wgt id='1195'> +7.8652112e+04 </wgt>
<wgt id='1196'> +7.3271488e+04 </wgt>
<wgt id='1197'> +8.0639378e+04 </wgt>
<wgt id='1198'> +8.0899431e+04 </wgt>
<wgt id='1199'> +7.0241235e+04 </wgt>
<wgt id='1200'> +8.5631017e+04 </wgt>
<wgt id='1201'> +6.1755066e+04 </wgt>
<wgt id='1202'> +8.7523770e+04 </wgt>
<wgt id='1203'> +7.9789772e+04 </wgt>
<wgt id='1204'> +7.8759298e+04 </wgt>
<wgt id='1205'> +8.5647552e+04 </wgt>
<wgt id='1206'> +7.7509301e+04 </wgt>
<wgt id='1207'> +7.1143212e+04 </wgt>
<wgt id='1208'> +8.9928611e+04 </wgt>
<wgt id='1209'> +7.8242130e+04 </wgt>
<wgt id='1210'> +6.2150649e+04 </wgt>
<wgt id='1211'> +6.9395713e+04 </wgt>
<wgt id='1212'> +8.1919278e+04 </wgt>
<wgt id='1213'> +7.8633964e+04 </wgt>
<wgt id='1214'> +7.3754052e+04 </wgt>
<wgt id='1215'> +5.2403789e+04 </wgt>
<wgt id='1216'> +5.7076406e+04 </wgt>
<wgt id='1217'> +6.1605359e+04 </wgt>
<wgt id='1218'> +6.5252684e+04 </wgt>
<wgt id='1219'> +7.0786972e+04 </wgt>
<wgt id='1220'> +7.4783846e+04 </wgt>
<wgt id='1221'> +8.2226414e+04 </wgt>
<wgt id='1222'> +8.7184586e+04 </wgt>
<wgt id='1223'> +6.7836028e+04 </wgt>
<wgt id='1224'> +6.8118085e+04 </wgt>
<wgt id='1225'> +6.7465185e+04 </wgt>
<wgt id='1226'> +6.7966698e+04 </wgt>
<wgt id='1227'> +6.3561207e+04 </wgt>
<wgt id='1228'> +6.7154695e+04 </wgt>
<wgt id='1229'> +6.8757641e+04 </wgt>
<wgt id='1230'> +6.7141849e+04 </wgt>
<wgt id='1231'> +6.8860181e+04 </wgt>
<wgt id='1232'> +6.6851174e+04 </wgt>
<wgt id='1233'> +7.1534417e+04 </wgt>
<wgt id='1234'> +6.8406052e+04 </wgt>
<wgt id='1235'> +6.6704708e+04 </wgt>
<wgt id='1236'> +6.7639163e+04 </wgt>
<wgt id='1237'> +6.6225559e+04 </wgt>
<wgt id='1238'> +6.9663112e+04 </wgt>
<wgt id='1239'> +6.6174739e+04 </wgt>
<wgt id='1240'> +6.8704413e+04 </wgt>
<wgt id='1241'> +6.7614124e+04 </wgt>
<wgt id='1242'> +6.7427747e+04 </wgt>
<wgt id='1243'> +6.8049025e+04 </wgt>
<wgt id='1244'> +6.6510841e+04 </wgt>
<wgt id='1245'> +6.7749720e+04 </wgt>
<wgt id='1246'> +6.7501058e+04 </wgt>
<wgt id='1247'> +6.7218095e+04 </wgt>
<wgt id='1248'> +6.7937955e+04 </wgt>
<wgt id='1249'> +6.8084328e+04 </wgt>
<wgt id='1250'> +6.7773290e+04 </wgt>
<wgt id='1251'> +6.7657660e+04 </wgt>
<wgt id='1252'> +6.7194191e+04 </wgt>
<wgt id='1253'> +6.7839017e+04 </wgt>
<wgt id='1254'> +6.8094568e+04 </wgt>
<wgt id='1255'> +6.7883706e+04 </wgt>
<wgt id='1256'> +6.8043394e+04 </wgt>
<wgt id='1257'> +6.7699244e+04 </wgt>
<wgt id='1258'> +6.7854824e+04 </wgt>
<wgt id='1259'> +6.8039407e+04 </wgt>
<wgt id='1260'> +6.8032724e+04 </wgt>
<wgt id='1261'> +6.8063954e+04 </wgt>
<wgt id='1262'> +6.8039014e+04 </wgt>
<wgt id='1263'> +6.7837423e+04 </wgt>
<wgt id='1264'> +6.8645426e+04 </wgt>
<wgt id='1265'> +6.8164975e+04 </wgt>
<wgt id='1266'> +6.7659569e+04 </wgt>
<wgt id='1267'> +6.8207656e+04 </wgt>
<wgt id='1268'> +6.7872192e+04 </wgt>
<wgt id='1269'> +6.7874037e+04 </wgt>
<wgt id='1270'> +6.7819987e+04 </wgt>
<wgt id='1271'> +6.7726966e+04 </wgt>
<wgt id='1272'> +6.7327920e+04 </wgt>
<wgt id='1273'> +6.7531229e+04 </wgt>
<wgt id='1274'> +6.7433363e+04 </wgt>
<wgt id='1275'> +6.8001669e+04 </wgt>
<wgt id='1276'> +6.7964580e+04 </wgt>
<wgt id='1277'> +6.7980218e+04 </wgt>
<wgt id='1278'> +6.7963621e+04 </wgt>
<wgt id='1279'> +6.7338834e+04 </wgt>
<wgt id='1280'> +6.8169976e+04 </wgt>
<wgt id='1281'> +6.8020695e+04 </wgt>
<wgt id='1282'> +6.7778422e+04 </wgt>
<wgt id='1283'> +6.7612758e+04 </wgt>
<wgt id='1284'> +6.7575581e+04 </wgt>
<wgt id='1285'> +6.7538268e+04 </wgt>
<wgt id='1286'> +6.7486824e+04 </wgt>
<wgt id='1287'> +6.7742368e+04 </wgt>
<wgt id='1288'> +6.7624614e+04 </wgt>
<wgt id='1289'> +6.7446523e+04 </wgt>
<wgt id='1290'> +6.8336494e+04 </wgt>
<wgt id='1291'> +6.8015589e+04 </wgt>
<wgt id='1292'> +6.8069662e+04 </wgt>
<wgt id='1293'> +6.8061349e+04 </wgt>
<wgt id='1294'> +6.7747735e+04 </wgt>
<wgt id='1295'> +6.7868088e+04 </wgt>
<wgt id='1296'> +6.8005747e+04 </wgt>
<wgt id='1297'> +6.7457281e+04 </wgt>
<wgt id='1298'> +6.7914611e+04 </wgt>
<wgt id='1299'> +6.7800986e+04 </wgt>
<wgt id='1300'> +6.7677924e+04 </wgt>
<wgt id='1301'> +6.7831565e+04 </wgt>
<wgt id='1302'> +6.8004703e+04 </wgt>
<wgt id='1303'> +6.7872488e+04 </wgt>
<wgt id='1304'> +6.7934993e+04 </wgt>
<wgt id='1305'> +6.8004502e+04 </wgt>
<wgt id='1306'> +6.7808107e+04 </wgt>
<wgt id='1307'> +6.7842739e+04 </wgt>
<wgt id='1308'> +6.7615832e+04 </wgt>
<wgt id='1309'> +6.7966582e+04 </wgt>
<wgt id='1310'> +6.7981586e+04 </wgt>
<wgt id='1311'> +6.7862154e+04 </wgt>
<wgt id='1312'> +6.7912519e+04 </wgt>
<wgt id='1313'> +6.7729463e+04 </wgt>
<wgt id='1314'> +6.7934122e+04 </wgt>
<wgt id='1315'> +6.7877552e+04 </wgt>
<wgt id='1316'> +6.7597648e+04 </wgt>
<wgt id='1317'> +6.7949731e+04 </wgt>
<wgt id='1318'> +6.7807559e+04 </wgt>
<wgt id='1319'> +6.7752595e+04 </wgt>
<wgt id='1320'> +6.7789778e+04 </wgt>
<wgt id='1321'> +6.7992204e+04 </wgt>
<wgt id='1322'> +6.7625084e+04 </wgt>
<wgt id='1323'> +6.7889974e+04 </wgt>
<wgt id='1324'> +6.3306141e+04 </wgt>
<wgt id='1325'> +7.1391799e+04 </wgt>
<wgt id='1326'> +8.2632178e+04 </wgt>
<wgt id='1327'> +7.6887213e+04 </wgt>
<wgt id='1328'> +7.9063676e+04 </wgt>
<wgt id='1329'> +7.7390886e+04 </wgt>
<wgt id='1330'> +7.8960155e+04 </wgt>
<wgt id='1331'> +7.6664496e+04 </wgt>
<wgt id='1332'> +7.9265160e+04 </wgt>
<wgt id='1333'> +7.7924975e+04 </wgt>
<wgt id='1334'> +7.6002936e+04 </wgt>
<wgt id='1335'> +8.3170765e+04 </wgt>
<wgt id='1336'> +7.5154176e+04 </wgt>
<wgt id='1337'> +8.0267226e+04 </wgt>
<wgt id='1338'> +7.9602093e+04 </wgt>
<wgt id='1339'> +7.8468948e+04 </wgt>
<wgt id='1340'> +7.9642097e+04 </wgt>
<wgt id='1341'> +8.7210090e+04 </wgt>
<wgt id='1342'> +7.8867663e+04 </wgt>
<wgt id='1343'> +8.0654430e+04 </wgt>
<wgt id='1344'> +7.8458629e+04 </wgt>
<wgt id='1345'> +7.8975283e+04 </wgt>
<wgt id='1346'> +8.2680629e+04 </wgt>
<wgt id='1347'> +7.8875931e+04 </wgt>
<wgt id='1348'> +7.6475287e+04 </wgt>
<wgt id='1349'> +7.9202177e+04 </wgt>
<wgt id='1350'> +7.9122077e+04 </wgt>
<wgt id='1351'> +7.7935241e+04 </wgt>
<wgt id='1352'> +8.1938479e+04 </wgt>
<wgt id='1353'> +7.6124630e+04 </wgt>
<wgt id='1354'> +7.9269410e+04 </wgt>
<wgt id='1355'> +8.0644162e+04 </wgt>
<wgt id='1356'> +7.9360685e+04 </wgt>
<wgt id='1357'> +7.9199994e+04 </wgt>
<wgt id='1358'> +7.6834712e+04 </wgt>
<wgt id='1359'> +8.0679628e+04 </wgt>
<wgt id='1360'> +7.7735186e+04 </wgt>
<wgt id='1361'> +7.5839095e+04 </wgt>
<wgt id='1362'> +7.8783647e+04 </wgt>
<wgt id='1363'> +7.7726306e+04 </wgt>
<wgt id='1364'> +8.0356299e+04 </wgt>
<wgt id='1365'> +7.6504472e+04 </wgt>
<wgt id='1366'> +7.7284612e+04 </wgt>
<wgt id='1367'> +7.8082240e+04 </wgt>
<wgt id='1368'> +8.0421224e+04 </wgt>
<wgt id='1369'> +7.7127724e+04 </wgt>
<wgt id='1370'> +8.0117822e+04 </wgt>
<wgt id='1371'> +8.0677367e+04 </wgt>
<wgt id='1372'> +7.6829960e+04 </wgt>
<wgt id='1373'> +8.2513706e+04 </wgt>
<wgt id='1374'> +7.9565142e+04 </wgt>
<wgt id='1375'> +7.8675020e+04 </wgt>
<wgt id='1376'> +7.8555113e+04 </wgt>
<wgt id='1377'> +8.0929729e+04 </wgt>
<wgt id='1378'> +8.2932509e+04 </wgt>
<wgt id='1379'> +7.9410871e+04 </wgt>
<wgt id='1380'> +7.7253165e+04 </wgt>
<wgt id='1381'> +7.4349032e+04 </wgt>
<wgt id='1382'> +7.9910950e+04 </wgt>
<wgt id='1383'> +7.9019076e+04 </wgt>
<wgt id='1384'> +7.7371258e+04 </wgt>
<wgt id='1385'> +8.2322044e+04 </wgt>
<wgt id='1386'> +8.3176333e+04 </wgt>
<wgt id='1387'> +8.0141595e+04 </wgt>
<wgt id='1388'> +7.7027599e+04 </wgt>
<wgt id='1389'> +7.9019830e+04 </wgt>
<wgt id='1390'> +8.2311184e+04 </wgt>
<wgt id='1391'> +7.8911721e+04 </wgt>
<wgt id='1392'> +8.0814592e+04 </wgt>
<wgt id='1393'> +8.4249831e+04 </wgt>
<wgt id='1394'> +7.6504472e+04 </wgt>
<wgt id='1395'> +7.9416498e+04 </wgt>
<wgt id='1396'> +7.7002445e+04 </wgt>
<wgt id='1397'> +7.8427189e+04 </wgt>
<wgt id='1398'> +8.0123262e+04 </wgt>
<wgt id='1399'> +7.9691076e+04 </wgt>
<wgt id='1400'> +7.7844525e+04 </wgt>
<wgt id='1401'> +8.0731500e+04 </wgt>
<wgt id='1402'> +7.7950717e+04 </wgt>
<wgt id='1403'> +7.8059039e+04 </wgt>
<wgt id='1404'> +8.0087068e+04 </wgt>
<wgt id='1405'> +7.7294247e+04 </wgt>
<wgt id='1406'> +7.7413654e+04 </wgt>
<wgt id='1407'> +7.6745323e+04 </wgt>
<wgt id='1408'> +7.8714237e+04 </wgt>
<wgt id='1409'> +7.6881193e+04 </wgt>
<wgt id='1410'> +7.4467936e+04 </wgt>
<wgt id='1411'> +7.9460237e+04 </wgt>
<wgt id='1412'> +7.8335345e+04 </wgt>
<wgt id='1413'> +8.0340937e+04 </wgt>
<wgt id='1414'> +8.0988497e+04 </wgt>
<wgt id='1415'> +7.8530075e+04 </wgt>
<wgt id='1416'> +8.1726410e+04 </wgt>
<wgt id='1417'> +8.0213585e+04 </wgt>
<wgt id='1418'> +7.7067599e+04 </wgt>
<wgt id='1419'> +7.8845578e+04 </wgt>
<wgt id='1420'> +7.9394281e+04 </wgt>
<wgt id='1421'> +7.6769299e+04 </wgt>
<wgt id='1422'> +8.0147105e+04 </wgt>
<wgt id='1423'> +8.0995329e+04 </wgt>
<wgt id='1424'> +8.2025829e+04 </wgt>
<wgt id='1425'> +7.6236001e+04 </wgt>
<wgt id='1426'> +7.8907287e+04 </wgt>
<wgt id='1427'> +8.0519819e+04 </wgt>
<wgt id='1428'> +7.7403370e+04 </wgt>
<wgt id='1429'> +7.7247412e+04 </wgt>
<wgt id='1430'> +8.2006178e+04 </wgt>
<wgt id='1431'> +7.9469772e+04 </wgt>
<wgt id='1432'> +7.9176966e+04 </wgt>
<wgt id='1433'> +7.9979897e+04 </wgt>
<wgt id='1434'> +7.9351024e+04 </wgt>
<wgt id='1435'> +7.9457982e+04 </wgt>
<wgt id='1436'> +8.1236452e+04 </wgt>
<wgt id='1437'> +7.9562324e+04 </wgt>
<wgt id='1438'> +7.9840503e+04 </wgt>
<wgt id='1439'> +7.9501970e+04 </wgt>
<wgt id='1440'> +7.9571707e+04 </wgt>
<wgt id='1441'> +7.9434354e+04 </wgt>
<wgt id='1442'> +7.9527088e+04 </wgt>
<wgt id='1443'> +7.9760317e+04 </wgt>
<wgt id='1444'> +7.9590918e+04 </wgt>
<wgt id='1445'> +7.9388684e+04 </wgt>
<wgt id='1446'> +7.9766936e+04 </wgt>
<wgt id='1447'> +7.9516526e+04 </wgt>
<wgt id='1448'> +7.9735923e+04 </wgt>
<wgt id='1449'> +7.9194822e+04 </wgt>
<wgt id='1450'> +7.9489477e+04 </wgt>
<wgt id='1451'> +7.9780596e+04 </wgt>
<wgt id='1452'> +7.9272106e+04 </wgt>
<wgt id='1453'> +7.9742227e+04 </wgt>
<wgt id='1454'> +7.9144649e+04 </wgt>
<wgt id='1455'> +7.9383748e+04 </wgt>
<wgt id='1456'> +7.9760747e+04 </wgt>
<wgt id='1457'> +7.9385217e+04 </wgt>
<wgt id='1458'> +7.9901721e+04 </wgt>
<wgt id='1459'> +7.9578214e+04 </wgt>
<wgt id='1460'> +7.9277005e+04 </wgt>
<wgt id='1461'> +7.9453873e+04 </wgt>
<wgt id='1462'> +7.9837601e+04 </wgt>
<wgt id='1463'> +7.9689689e+04 </wgt>
<wgt id='1464'> +7.9780973e+04 </wgt>
<wgt id='1465'> +7.9325828e+04 </wgt>
<wgt id='1466'> +7.9530840e+04 </wgt>
<wgt id='1467'> +7.9426500e+04 </wgt>
<wgt id='1468'> +7.9477133e+04 </wgt>
<wgt id='1469'> +7.9464598e+04 </wgt>
<wgt id='1470'> +7.9501768e+04 </wgt>
<wgt id='1471'> +7.9287899e+04 </wgt>
<wgt id='1472'> +7.9408233e+04 </wgt>
<wgt id='1473'> +7.9365590e+04 </wgt>
<wgt id='1474'> +7.9449863e+04 </wgt>
<wgt id='1475'> +7.9479383e+04 </wgt>
<wgt id='1476'> +7.9410810e+04 </wgt>
<wgt id='1477'> +7.9368561e+04 </wgt>
<wgt id='1478'> +7.9415614e+04 </wgt>
<wgt id='1479'> +7.9324881e+04 </wgt>
<wgt id='1480'> +7.9469855e+04 </wgt>
<wgt id='1481'> +7.9593697e+04 </wgt>
<wgt id='1482'> +7.7247412e+04 </wgt>
<wgt id='1483'> +8.2006178e+04 </wgt>
<wgt id='1484'> +8.6191475e+04 </wgt>
<wgt id='1485'> +8.5270657e+04 </wgt>
<wgt id='1486'> +8.5105731e+04 </wgt>
<wgt id='1487'> +8.7229775e+04 </wgt>
<wgt id='1488'> +8.8468081e+04 </wgt>
<wgt id='1489'> +8.5997251e+04 </wgt>
<wgt id='1490'> +8.6837537e+04 </wgt>
<wgt id='1491'> +8.7546292e+04 </wgt>
<wgt id='1492'> +8.7623287e+04 </wgt>
<wgt id='1493'> +8.5703684e+04 </wgt>
<wgt id='1494'> +8.4985200e+04 </wgt>
<wgt id='1495'> +8.9209679e+04 </wgt>
<wgt id='1496'> +8.7537245e+04 </wgt>
<wgt id='1497'> +9.3307062e+04 </wgt>
<wgt id='1498'> +8.5247538e+04 </wgt>
<wgt id='1499'> +8.5036385e+04 </wgt>
<wgt id='1500'> +8.5718969e+04 </wgt>
<wgt id='1501'> +8.7710136e+04 </wgt>
<wgt id='1502'> +8.5417966e+04 </wgt>
<wgt id='1503'> +8.9018223e+04 </wgt>
<wgt id='1504'> +8.7009302e+04 </wgt>
<wgt id='1505'> +8.4013476e+04 </wgt>
<wgt id='1506'> +8.7830475e+04 </wgt>
<wgt id='1507'> +8.5872205e+04 </wgt>
<wgt id='1508'> +8.9485161e+04 </wgt>
<wgt id='1509'> +8.3728180e+04 </wgt>
<wgt id='1510'> +8.6248883e+04 </wgt>
<wgt id='1511'> +8.5200395e+04 </wgt>
<wgt id='1512'> +8.5498781e+04 </wgt>
<wgt id='1513'> +8.7462607e+04 </wgt>
<wgt id='1514'> +8.7991210e+04 </wgt>
<wgt id='1515'> +8.8946382e+04 </wgt>
<wgt id='1516'> +8.6557260e+04 </wgt>
<wgt id='1517'> +8.4877833e+04 </wgt>
<wgt id='1518'> +8.6848639e+04 </wgt>
<wgt id='1519'> +8.6631702e+04 </wgt>
<wgt id='1520'> +8.3911614e+04 </wgt>
<wgt id='1521'> +8.6706648e+04 </wgt>
<wgt id='1522'> +8.6664348e+04 </wgt>
<wgt id='1523'> +8.7386013e+04 </wgt>
<wgt id='1524'> +8.5502731e+04 </wgt>
<wgt id='1525'> +8.3012537e+04 </wgt>
<wgt id='1526'> +8.3363466e+04 </wgt>
<wgt id='1527'> +8.6311820e+04 </wgt>
<wgt id='1528'> +8.4669726e+04 </wgt>
<wgt id='1529'> +8.6495711e+04 </wgt>
<wgt id='1530'> +8.4696452e+04 </wgt>
<wgt id='1531'> +8.8089459e+04 </wgt>
<wgt id='1532'> +8.5263495e+04 </wgt>
<wgt id='1533'> +8.5253246e+04 </wgt>
<wgt id='1534'> +8.6125269e+04 </wgt>
<wgt id='1535'> +8.6883641e+04 </wgt>
<wgt id='1536'> +8.4774514e+04 </wgt>
<wgt id='1537'> +8.4924896e+04 </wgt>
<wgt id='1538'> +8.6613203e+04 </wgt>
<wgt id='1539'> +8.5473941e+04 </wgt>
<wgt id='1540'> +8.7562218e+04 </wgt>
<wgt id='1541'> +8.4889556e+04 </wgt>
<wgt id='1542'> +8.8106127e+04 </wgt>
<wgt id='1543'> +8.5033862e+04 </wgt>
<wgt id='1544'> +8.5206843e+04 </wgt>
<wgt id='1545'> +8.3469323e+04 </wgt>
<wgt id='1546'> +8.5063401e+04 </wgt>
<wgt id='1547'> +8.4982199e+04 </wgt>
<wgt id='1548'> +8.5791021e+04 </wgt>
<wgt id='1549'> +8.7031916e+04 </wgt>
<wgt id='1550'> +8.4929127e+04 </wgt>
<wgt id='1551'> +8.6276055e+04 </wgt>
<wgt id='1552'> +8.3498779e+04 </wgt>
<wgt id='1553'> +8.7274907e+04 </wgt>
<wgt id='1554'> +8.4695892e+04 </wgt>
<wgt id='1555'> +8.8854657e+04 </wgt>
<wgt id='1556'> +8.7884239e+04 </wgt>
<wgt id='1557'> +8.6222258e+04 </wgt>
<wgt id='1558'> +8.3808900e+04 </wgt>
<wgt id='1559'> +8.4612622e+04 </wgt>
<wgt id='1560'> +8.4127679e+04 </wgt>
<wgt id='1561'> +8.4863425e+04 </wgt>
<wgt id='1562'> +8.6044985e+04 </wgt>
<wgt id='1563'> +8.7127456e+04 </wgt>
<wgt id='1564'> +8.5373657e+04 </wgt>
<wgt id='1565'> +8.5825530e+04 </wgt>
<wgt id='1566'> +8.9625534e+04 </wgt>
<wgt id='1567'> +8.8060856e+04 </wgt>
<wgt id='1568'> +8.6163873e+04 </wgt>
<wgt id='1569'> +8.7100128e+04 </wgt>
<wgt id='1570'> +8.5265562e+04 </wgt>
<wgt id='1571'> +8.7048110e+04 </wgt>
<wgt id='1572'> +8.7635481e+04 </wgt>
<wgt id='1573'> +8.6597418e+04 </wgt>
<wgt id='1574'> +8.8538000e+04 </wgt>
<wgt id='1575'> +8.3325882e+04 </wgt>
<wgt id='1576'> +8.5267423e+04 </wgt>
<wgt id='1577'> +8.7112573e+04 </wgt>
<wgt id='1578'> +8.3726675e+04 </wgt>
<wgt id='1579'> +8.7738920e+04 </wgt>
<wgt id='1580'> +8.5424219e+04 </wgt>
<wgt id='1581'> +8.3922366e+04 </wgt>
<wgt id='1582'> +8.5195778e+04 </wgt>
<wgt id='1583'> +8.4211535e+04 </wgt>
<wgt id='1584'> +8.9221479e+04 </wgt>
<wgt id='1585'> +7.5626850e+04 </wgt>
<wgt id='1586'> +6.4980111e+04 </wgt>
<wgt id='1587'> +7.5117422e+04 </wgt>
<wgt id='1588'> +7.7247412e+04 </wgt>
<wgt id='1589'> +7.8445518e+04 </wgt>
<wgt id='1590'> +8.0835035e+04 </wgt>
<wgt id='1591'> +8.2006178e+04 </wgt>
<wgt id='1592'> +8.4398358e+04 </wgt>
<wgt id='1593'> +8.2228214e+04 </wgt>
<wgt id='1594'> +8.0125300e+04 </wgt>
<wgt id='1595'> +8.3945168e+04 </wgt>
<wgt id='1596'> +8.8292376e+04 </wgt>
<wgt id='1597'> +7.6086900e+04 </wgt>
<wgt id='1598'> +9.3694639e+04 </wgt>
<wgt id='1599'> +7.5973444e+04 </wgt>
<wgt id='1600'> +9.1146853e+04 </wgt>
<wgt id='1601'> +7.5407720e+04 </wgt>
<wgt id='1602'> +8.5069785e+04 </wgt>
<wgt id='1603'> +8.0265612e+04 </wgt>
<wgt id='1604'> +7.9744299e+04 </wgt>
<wgt id='1605'> +8.7236051e+04 </wgt>
<wgt id='1606'> +8.1213125e+04 </wgt>
<wgt id='1607'> +8.2177773e+04 </wgt>
<wgt id='1608'> +8.8496834e+04 </wgt>
<wgt id='1609'> +7.6513053e+04 </wgt>
<wgt id='1610'> +8.3560359e+04 </wgt>
<wgt id='1611'> +8.0924059e+04 </wgt>
<wgt id='1612'> +8.1521008e+04 </wgt>
<wgt id='1613'> +8.2831184e+04 </wgt>
<wgt id='1614'> +7.9840683e+04 </wgt>
<wgt id='1615'> +8.6827418e+04 </wgt>
<wgt id='1616'> +8.6373755e+04 </wgt>
<wgt id='1617'> +7.7086390e+04 </wgt>
<wgt id='1618'> +8.1195842e+04 </wgt>
<wgt id='1619'> +8.5322048e+04 </wgt>
<wgt id='1620'> +7.6888559e+04 </wgt>
<wgt id='1621'> +8.9861931e+04 </wgt>
<wgt id='1622'> +7.8809836e+04 </wgt>
<wgt id='1623'> +8.5170500e+04 </wgt>
<wgt id='1624'> +8.1618436e+04 </wgt>
<wgt id='1625'> +8.1605424e+04 </wgt>
<wgt id='1626'> +8.1913572e+04 </wgt>
<wgt id='1627'> +8.1934685e+04 </wgt>
<wgt id='1628'> +7.5494568e+04 </wgt>
<wgt id='1629'> +9.0804318e+04 </wgt>
<wgt id='1630'> +7.5090527e+04 </wgt>
<wgt id='1631'> +9.1056577e+04 </wgt>
<wgt id='1632'> +7.4628918e+04 </wgt>
<wgt id='1633'> +9.4238874e+04 </wgt>
<wgt id='1634'> +8.2198459e+04 </wgt>
<wgt id='1635'> +8.2640738e+04 </wgt>
<wgt id='1636'> +9.3611503e+04 </wgt>
<wgt id='1637'> +7.7123070e+04 </wgt>
<wgt id='1638'> +7.7903929e+04 </wgt>
<wgt id='1639'> +8.5245913e+04 </wgt>
<wgt id='1640'> +7.5886381e+04 </wgt>
<wgt id='1641'> +8.8050544e+04 </wgt>
<wgt id='1642'> +9.3433766e+04 </wgt>
<wgt id='1643'> +7.5754931e+04 </wgt>
<wgt id='1644'> +7.5913875e+04 </wgt>
<wgt id='1645'> +9.0943257e+04 </wgt>
<wgt id='1646'> +9.0199147e+04 </wgt>
<wgt id='1647'> +7.7454755e+04 </wgt>
<wgt id='1648'> +8.2780845e+04 </wgt>
<wgt id='1649'> +8.2158821e+04 </wgt>
<wgt id='1650'> +8.2598382e+04 </wgt>
<wgt id='1651'> +8.1581675e+04 </wgt>
<wgt id='1652'> +7.6853391e+04 </wgt>
<wgt id='1653'> +7.9660807e+04 </wgt>
<wgt id='1654'> +8.4587012e+04 </wgt>
<wgt id='1655'> +8.6775265e+04 </wgt>
<wgt id='1656'> +9.2442029e+04 </wgt>
<wgt id='1657'> +9.3115005e+04 </wgt>
<wgt id='1658'> +9.0950729e+04 </wgt>
<wgt id='1659'> +9.3267806e+04 </wgt>
<wgt id='1660'> +9.1770723e+04 </wgt>
<wgt id='1661'> +9.2236255e+04 </wgt>
<wgt id='1662'> +9.1433720e+04 </wgt>
<wgt id='1663'> +9.2630393e+04 </wgt>
<wgt id='1664'> +9.1125870e+04 </wgt>
<wgt id='1665'> +9.0686870e+04 </wgt>
<wgt id='1666'> +9.2949675e+04 </wgt>
<wgt id='1667'> +9.4875351e+04 </wgt>
<wgt id='1668'> +9.0829416e+04 </wgt>
<wgt id='1669'> +9.4373122e+04 </wgt>
<wgt id='1670'> +9.0872565e+04 </wgt>
<wgt id='1671'> +9.1331064e+04 </wgt>
<wgt id='1672'> +9.4435403e+04 </wgt>
<wgt id='1673'> +9.0903356e+04 </wgt>
<wgt id='1674'> +9.3824672e+04 </wgt>
<wgt id='1675'> +8.9450830e+04 </wgt>
<wgt id='1676'> +9.5091666e+04 </wgt>
<wgt id='1677'> +9.6271012e+04 </wgt>
<wgt id='1678'> +8.8683779e+04 </wgt>
<wgt id='1679'> +9.0177280e+04 </wgt>
<wgt id='1680'> +9.7150223e+04 </wgt>
<wgt id='1681'> +9.2676797e+04 </wgt>
<wgt id='1682'> +9.1273384e+04 </wgt>
<wgt id='1683'> +8.9304609e+04 </wgt>
<wgt id='1684'> +9.5530569e+04 </wgt>
<wgt id='1685'> +9.0528731e+04 </wgt>
<wgt id='1686'> +9.4604231e+04 </wgt>
<wgt id='1687'> +8.8832331e+04 </wgt>
<wgt id='1688'> +9.7660159e+04 </wgt>
<wgt id='1689'> +8.9515779e+04 </wgt>
<wgt id='1690'> +9.6161377e+04 </wgt>
<wgt id='1691'> +8.8498076e+04 </wgt>
<wgt id='1692'> +9.6705533e+04 </wgt>
<wgt id='1693'> +8.2209053e+04 </wgt>
<wgt id='1694'> +1.0797202e+05 </wgt>
<wgt id='1695'> +9.3728905e+04 </wgt>
<wgt id='1696'> +9.0798162e+04 </wgt>
<wgt id='1697'> +8.9508454e+04 </wgt>
<wgt id='1698'> +9.6321702e+04 </wgt>
<wgt id='1699'> +9.6433969e+04 </wgt>
<wgt id='1700'> +8.6282993e+04 </wgt>
<wgt id='1701'> +1.0084641e+05 </wgt>
<wgt id='1702'> +8.6818115e+04 </wgt>
<wgt id='1703'> +9.5293453e+04 </wgt>
<wgt id='1704'> +9.0587739e+04 </wgt>
<wgt id='1705'> +8.8566459e+04 </wgt>
<wgt id='1706'> +9.7366845e+04 </wgt>
<wgt id='1707'> +9.0040297e+04 </wgt>
<wgt id='1708'> +9.4276848e+04 </wgt>
<wgt id='1709'> +9.7989851e+04 </wgt>
<wgt id='1710'> +8.8059677e+04 </wgt>
<wgt id='1711'> +9.4703565e+04 </wgt>
<wgt id='1712'> +9.0374133e+04 </wgt>
<wgt id='1713'> +9.1679148e+04 </wgt>
<wgt id='1714'> +9.2455559e+04 </wgt>
<wgt id='1715'> +9.0615335e+04 </wgt>
<wgt id='1716'> +8.5216513e+04 </wgt>
<wgt id='1717'> +8.9611616e+04 </wgt>
<wgt id='1718'> +8.9237232e+04 </wgt>
<wgt id='1719'> +9.0091173e+04 </wgt>
<wgt id='1720'> +8.9892178e+04 </wgt>
<wgt id='1721'> +8.9355413e+04 </wgt>
<wgt id='1722'> +9.0765952e+04 </wgt>
<wgt id='1723'> +8.7720998e+04 </wgt>
<wgt id='1724'> +9.0505774e+04 </wgt>
<wgt id='1725'> +8.8885502e+04 </wgt>
<wgt id='1726'> +9.0189358e+04 </wgt>
<wgt id='1727'> +8.9016479e+04 </wgt>
<wgt id='1728'> +9.2534323e+04 </wgt>
<wgt id='1729'> +8.6785167e+04 </wgt>
<wgt id='1730'> +8.7205329e+04 </wgt>
<wgt id='1731'> +9.1324806e+04 </wgt>
<wgt id='1732'> +8.7925028e+04 </wgt>
<wgt id='1733'> +8.7925028e+04 </wgt>
<wgt id='1734'> +9.1118910e+04 </wgt>
<wgt id='1735'> +8.8599928e+04 </wgt>
<wgt id='1736'> +9.0829500e+04 </wgt>
<wgt id='1737'> +8.7933767e+04 </wgt>
<wgt id='1738'> +8.6535378e+04 </wgt>
<wgt id='1739'> +9.4878697e+04 </wgt>
<wgt id='1740'> +8.9884936e+04 </wgt>
<wgt id='1741'> +8.8973779e+04 </wgt>
<wgt id='1742'> +9.0453444e+04 </wgt>
<wgt id='1743'> +8.8714224e+04 </wgt>
<wgt id='1744'> +8.9928807e+04 </wgt>
<wgt id='1745'> +8.8754671e+04 </wgt>
<wgt id='1746'> +8.5716249e+04 </wgt>
<wgt id='1747'> +9.1925998e+04 </wgt>
<wgt id='1748'> +9.0585464e+04 </wgt>
<wgt id='1749'> +8.6739413e+04 </wgt>
<wgt id='1750'> +8.8859066e+04 </wgt>
<wgt id='1751'> +9.0422716e+04 </wgt>
<wgt id='1752'> +9.0417548e+04 </wgt>
<wgt id='1753'> +8.8517066e+04 </wgt>
<wgt id='1754'> +8.9096646e+04 </wgt>
<wgt id='1755'> +8.9904355e+04 </wgt>
<wgt id='1756'> +8.8217825e+04 </wgt>
<wgt id='1757'> +9.3254202e+04 </wgt>
<wgt id='1758'> +8.8895363e+04 </wgt>
<wgt id='1759'> +9.0162732e+04 </wgt>
<wgt id='1760'> +8.9846623e+04 </wgt>
<wgt id='1761'> +8.9548201e+04 </wgt>
<wgt id='1762'> +8.8197874e+04 </wgt>
<wgt id='1763'> +9.2937979e+04 </wgt>
<wgt id='1764'> +8.9706114e+04 </wgt>
<wgt id='1765'> +8.9189860e+04 </wgt>
<wgt id='1766'> +8.9774793e+04 </wgt>
<wgt id='1767'> +8.9442023e+04 </wgt>
<wgt id='1768'> +8.8681987e+04 </wgt>
<wgt id='1769'> +9.0431428e+04 </wgt>
<wgt id='1770'> +9.0863551e+04 </wgt>
<wgt id='1771'> +8.8409797e+04 </wgt>
<wgt id='1772'> +8.9055060e+04 </wgt>
<wgt id='1773'> +9.0823562e+04 </wgt>
<wgt id='1774'> +9.1467278e+04 </wgt>
<wgt id='1775'> +8.8319291e+04 </wgt>
<wgt id='1776'> +9.0060679e+04 </wgt>
<wgt id='1777'> +8.9417272e+04 </wgt>
<wgt id='1778'> +8.8534360e+04 </wgt>
<wgt id='1779'> +9.0031984e+04 </wgt>
<wgt id='1780'> +8.6222520e+04 </wgt>
<wgt id='1781'> +9.0788922e+04 </wgt>
<wgt id='1782'> +8.9611616e+04 </wgt>
<wgt id='1783'> +8.9643942e+04 </wgt>
<wgt id='1784'> +8.3735569e+04 </wgt>
<wgt id='1785'> +8.1357323e+04 </wgt>
<wgt id='1786'> +9.0906493e+04 </wgt>
<wgt id='1787'> +8.3707599e+04 </wgt>
<wgt id='1788'> +8.4565133e+04 </wgt>
<wgt id='1789'> +8.3252843e+04 </wgt>
<wgt id='1790'> +8.1583364e+04 </wgt>
<wgt id='1791'> +8.2488942e+04 </wgt>
<wgt id='1792'> +8.5396635e+04 </wgt>
<wgt id='1793'> +8.2432665e+04 </wgt>
<wgt id='1794'> +8.5013036e+04 </wgt>
<wgt id='1795'> +8.6541484e+04 </wgt>
<wgt id='1796'> +8.3887965e+04 </wgt>
<wgt id='1797'> +9.0632313e+04 </wgt>
<wgt id='1798'> +8.2662566e+04 </wgt>
<wgt id='1799'> +8.2885694e+04 </wgt>
<wgt id='1800'> +8.3502978e+04 </wgt>
<wgt id='1801'> +8.1244434e+04 </wgt>
<wgt id='1802'> +8.2813367e+04 </wgt>
<wgt id='1803'> +8.3215904e+04 </wgt>
<wgt id='1804'> +8.3462681e+04 </wgt>
<wgt id='1805'> +8.3825176e+04 </wgt>
<wgt id='1806'> +8.2980889e+04 </wgt>
<wgt id='1807'> +8.3264037e+04 </wgt>
<wgt id='1808'> +8.3440006e+04 </wgt>
<wgt id='1809'> +8.3446772e+04 </wgt>
<wgt id='1810'> +8.3266057e+04 </wgt>
<wgt id='1811'> +8.3510352e+04 </wgt>
<wgt id='1812'> +8.3462018e+04 </wgt>
<wgt id='1813'> +8.3041504e+04 </wgt>
<wgt id='1814'> +8.2599984e+04 </wgt>
<wgt id='1815'> +8.3814990e+04 </wgt>
<wgt id='1816'> +8.3230559e+04 </wgt>
<wgt id='1817'> +8.2357874e+04 </wgt>
<wgt id='1818'> +8.3961238e+04 </wgt>
<wgt id='1819'> +8.3178587e+04 </wgt>
<wgt id='1820'> +8.2787658e+04 </wgt>
<wgt id='1821'> +8.3545662e+04 </wgt>
<wgt id='1822'> +8.3149770e+04 </wgt>
<wgt id='1823'> +8.1584291e+04 </wgt>
<wgt id='1824'> +8.3447252e+04 </wgt>
<wgt id='1825'> +8.1820539e+04 </wgt>
<wgt id='1826'> +8.5629442e+04 </wgt>
<wgt id='1827'> +8.1907340e+04 </wgt>
<wgt id='1828'> +8.1988327e+04 </wgt>
<wgt id='1829'> +8.1824467e+04 </wgt>
<wgt id='1830'> +8.2033721e+04 </wgt>
<wgt id='1831'> +8.1778719e+04 </wgt>
<wgt id='1832'> +8.2085728e+04 </wgt>
<wgt id='1833'> +8.1727224e+04 </wgt>
<wgt id='1834'> +8.2083768e+04 </wgt>
<wgt id='1835'> +8.1718913e+04 </wgt>
<wgt id='1836'> +8.1969821e+04 </wgt>
<wgt id='1837'> +8.1836277e+04 </wgt>
<wgt id='1838'> +8.2123375e+04 </wgt>
<wgt id='1839'> +8.1689283e+04 </wgt>
<wgt id='1840'> +8.1671936e+04 </wgt>
<wgt id='1841'> +8.2146751e+04 </wgt>
<wgt id='1842'> +8.1876564e+04 </wgt>
<wgt id='1843'> +8.2080691e+04 </wgt>
<wgt id='1844'> +8.1917038e+04 </wgt>
<wgt id='1845'> +8.1872849e+04 </wgt>
<wgt id='1846'> +8.1786411e+04 </wgt>
<wgt id='1847'> +8.2017368e+04 </wgt>
<wgt id='1848'> +8.1253160e+04 </wgt>
<wgt id='1849'> +8.2397623e+04 </wgt>
<wgt id='1850'> +8.1873015e+04 </wgt>
<wgt id='1851'> +8.1906794e+04 </wgt>
<wgt id='1852'> +8.1432321e+04 </wgt>
<wgt id='1853'> +8.2092527e+04 </wgt>
<wgt id='1854'> +8.1848039e+04 </wgt>
<wgt id='1855'> +8.2090720e+04 </wgt>
<wgt id='1856'> +9.3716667e+04 </wgt>
<wgt id='1857'> +9.3687521e+04 </wgt>
<wgt id='1858'> +9.3715463e+04 </wgt>
<wgt id='1859'> +9.3604204e+04 </wgt>
<wgt id='1860'> +9.3724244e+04 </wgt>
<wgt id='1861'> +9.4230159e+04 </wgt>
<wgt id='1862'> +9.4387011e+04 </wgt>
<wgt id='1863'> +9.2836686e+04 </wgt>
<wgt id='1864'> +9.4021777e+04 </wgt>
<wgt id='1865'> +9.3981044e+04 </wgt>
<wgt id='1866'> +9.4103631e+04 </wgt>
<wgt id='1867'> +9.3890465e+04 </wgt>
<wgt id='1868'> +9.5181140e+04 </wgt>
<wgt id='1869'> +9.3514787e+04 </wgt>
<wgt id='1870'> +9.4789183e+04 </wgt>
<wgt id='1871'> +9.3642404e+04 </wgt>
<wgt id='1872'> +9.4293258e+04 </wgt>
<wgt id='1873'> +9.3718146e+04 </wgt>
<wgt id='1874'> +9.3670816e+04 </wgt>
<wgt id='1875'> +9.3509239e+04 </wgt>
<wgt id='1876'> +9.3460135e+04 </wgt>
<wgt id='1877'> +9.5506761e+04 </wgt>
<wgt id='1878'> +9.3295264e+04 </wgt>
<wgt id='1879'> +9.4118317e+04 </wgt>
<wgt id='1880'> +9.4219003e+04 </wgt>
<wgt id='1881'> +9.4881842e+04 </wgt>
<wgt id='1882'> +9.3613246e+04 </wgt>
<wgt id='1883'> +9.3307157e+04 </wgt>
<wgt id='1884'> +9.4229602e+04 </wgt>
<wgt id='1885'> +9.2394830e+04 </wgt>
<wgt id='1886'> -1.5052220e+04 </wgt>
<wgt id='1887'> +8.2221982e+03 </wgt>
<wgt id='1888'> +4.2189361e+04 </wgt>
<wgt id='1889'> +5.2728237e+04 </wgt>
</rwgt>
</event>
<event npLO=" -1 " npNLO=" 0 ">
 5      1 +7.4519530e+04 2.63096650e+01 7.55820760e-03 1.20175850e-01
        3 -1    0    0  501    0 +0.0000000000e+00 +0.0000000000e+00 +1.4744729244e+01 1.4744729244e+01 0.0000000000e+00 0.0000e+00 -1.0000e+00
       -4 -1    0    0    0  501 +0.0000000000e+00 +0.0000000000e+00 -1.1094957477e+02 1.1094957477e+02 0.0000000000e+00 0.0000e+00 1.0000e+00
      -24  2    1    2    0    0 +0.0000000000e+00 +0.0000000000e+00 -9.6204845523e+01 1.2569430401e+02 8.0893051362e+01 0.0000e+00 0.0000e+00
       11  1    3    3    0    0 -2.0482251982e+01 +1.3618750178e+01 +1.7881671928e+00 2.4661519511e+01 0.0000000000e+00 0.0000e+00 -1.0000e+00
      -12  1    3    3    0    0 +2.0482251982e+01 -1.3618750178e+01 -9.7993012716e+01 1.0103278450e+02 0.0000000000e+00 0.0000e+00 1.0000e+00
#aMCatNLO 1  0  0  2  1 0.42423167E+01 0.00000000E+00 -9  5  0 0.00000000E+00 0.00000000E+00 0.00000000E+00 0.00000000E+00 0.00000000E+00
<rwgt>
<wgt id='1001'> +7.4519530e+04 </wgt>
<wgt id='1002'> +7.2049510e+04 </wgt>
<wgt id='1003'> +7.7596466e+04 </wgt>
<wgt id='1004'> +8.5126320e+04 </wgt>
<wgt id='1005'> +8.2459019e+04 </wgt>
<wgt id='1006'> +8.8449009e+04 </wgt>
<wgt id='1007'> +6.2849339e+04 </wgt>
<wgt id='1008'> +6.0631970e+04 </wgt>
<wgt id='1009'> +6.5611547e+04 </wgt>
<wgt id='1010'> +7.4519530e+04 </wgt>
<wgt id='1011'> +7.4953592e+04 </wgt>
<wgt id='1012'> +7.4653764e+04 </wgt>
<wgt id='1013'> +7.5396429e+04 </wgt>
<wgt id='1014'> +7.3238658e+04 </wgt>
<wgt id='1015'> +7.5903632e+04 </wgt>
<wgt id='1016'> +7.3833856e+04 </wgt>
<wgt id='1017'> +7.4361809e+04 </wgt>
<wgt id='1018'> +7.5464488e+04 </wgt>
<wgt id='1019'> +7.3637802e+04 </wgt>
<wgt id='1020'> +7.5611202e+04 </wgt>
<wgt id='1021'> +7.4644428e+04 </wgt>
<wgt id='1022'> +7.3642458e+04 </wgt>
<wgt id='1023'> +7.3935467e+04 </wgt>
<wgt id='1024'> +7.4097816e+04 </wgt>
<wgt id='1025'> +7.2648921e+04 </wgt>
<wgt id='1026'> +7.5161143e+04 </wgt>
<wgt id='1027'> +7.4542750e+04 </wgt>
<wgt id='1028'> +7.5732878e+04 </wgt>
<wgt id='1029'> +7.4473407e+04 </wgt>
<wgt id='1030'> +7.4478434e+04 </wgt>
<wgt id='1031'> +7.4846657e+04 </wgt>
<wgt id='1032'> +7.3813115e+04 </wgt>
<wgt id='1033'> +7.5255805e+04 </wgt>
<wgt id='1034'> +7.5576000e+04 </wgt>
<wgt id='1035'> +7.5070624e+04 </wgt>
<wgt id='1036'> +7.4449316e+04 </wgt>
<wgt id='1037'> +7.4070044e+04 </wgt>
<wgt id='1038'> +7.4237633e+04 </wgt>
<wgt id='1039'> +7.4250644e+04 </wgt>
<wgt id='1040'> +7.4289307e+04 </wgt>
<wgt id='1041'> +7.4193491e+04 </wgt>
<wgt id='1042'> +7.4887879e+04 </wgt>
<wgt id='1043'> +7.4246469e+04 </wgt>
<wgt id='1044'> +7.4519497e+04 </wgt>
<wgt id='1045'> +7.4562555e+04 </wgt>
<wgt id='1046'> +7.4644388e+04 </wgt>
<wgt id='1047'> +7.4519172e+04 </wgt>
<wgt id='1048'> +7.4297443e+04 </wgt>
<wgt id='1049'> +7.4432427e+04 </wgt>
<wgt id='1050'> +7.4559061e+04 </wgt>
<wgt id='1051'> +7.4592803e+04 </wgt>
<wgt id='1052'> +7.4529583e+04 </wgt>
<wgt id='1053'> +7.4589876e+04 </wgt>
<wgt id='1054'> +7.4408185e+04 </wgt>
<wgt id='1055'> +7.4417728e+04 </wgt>
<wgt id='1056'> +7.4465737e+04 </wgt>
<wgt id='1057'> +7.4520732e+04 </wgt>
<wgt id='1058'> +7.4312497e+04 </wgt>
<wgt id='1059'> +7.4559225e+04 </wgt>
<wgt id='1060'> +7.4634674e+04 </wgt>
<wgt id='1061'> +7.4529416e+04 </wgt>
<wgt id='1062'> +7.4521270e+04 </wgt>
<wgt id='1063'> +7.4679896e+04 </wgt>
<wgt id='1064'> +7.4567645e+04 </wgt>
<wgt id='1065'> +7.4554658e+04 </wgt>
<wgt id='1066'> +7.4176024e+04 </wgt>
<wgt id='1067'> +7.4488778e+04 </wgt>
<wgt id='1068'> +7.4640262e+04 </wgt>
<wgt id='1069'> +7.4392832e+04 </wgt>
<wgt id='1070'> +7.4389612e+04 </wgt>
<wgt id='1071'> +7.4532659e+04 </wgt>
<wgt id='1072'> +7.4627360e+04 </wgt>
<wgt id='1073'> +7.4477096e+04 </wgt>
<wgt id='1074'> +7.4450104e+04 </wgt>
<wgt id='1075'> +7.4544538e+04 </wgt>
<wgt id='1076'> +7.4443809e+04 </wgt>
<wgt id='1077'> +7.4529720e+04 </wgt>
<wgt id='1078'> +7.4503313e+04 </wgt>
<wgt id='1079'> +7.4474169e+04 </wgt>
<wgt id='1080'> +7.4398926e+04 </wgt>
<wgt id='1081'> +7.4380434e+04 </wgt>
<wgt id='1082'> +7.4518078e+04 </wgt>
<wgt id='1083'> +7.4325599e+04 </wgt>
<wgt id='1084'> +7.4405916e+04 </wgt>
<wgt id='1085'> +7.4474541e+04 </wgt>
<wgt id='1086'> +7.4525928e+04 </wgt>
<wgt id='1087'> +7.4585236e+04 </wgt>
<wgt id='1088'> +7.4406533e+04 </wgt>
<wgt id='1089'> +7.4557594e+04 </wgt>
<wgt id='1090'> +7.4540358e+04 </wgt>
<wgt id='1091'> +7.4523221e+04 </wgt>
<wgt id='1092'> +7.4560851e+04 </wgt>
<wgt id='1093'> +7.4423979e+04 </wgt>
<wgt id='1094'> +7.4515190e+04 </wgt>
<wgt id='1095'> +7.4483671e+04 </wgt>
<wgt id='1096'> +7.4580969e+04 </wgt>
<wgt id='1097'> +7.4450249e+04 </wgt>
<wgt id='1098'> +7.4593172e+04 </wgt>
<wgt id='1099'> +7.4522043e+04 </wgt>
<wgt id='1100'> +7.4551230e+04 </wgt>
<wgt id='1101'> +7.4530881e+04 </wgt>
<wgt id='1102'> +7.4462807e+04 </wgt>
<wgt id='1103'> +7.4549008e+04 </wgt>
<wgt id='1104'> +7.4472228e+04 </wgt>
<wgt id='1105'> +7.4445161e+04 </wgt>
<wgt id='1106'> +7.4465820e+04 </wgt>
<wgt id='1107'> +7.4481021e+04 </wgt>
<wgt id='1108'> +7.4530422e+04 </wgt>
<wgt id='1109'> +7.4492195e+04 </wgt>
<wgt id='1110'> +7.4519530e+04 </wgt>
<wgt id='1111'> +7.1653524e+04 </wgt>
<wgt id='1112'> +7.5744320e+04 </wgt>
<wgt id='1113'> +7.4519530e+04 </wgt>
<wgt id='1114'> +6.2534865e+04 </wgt>
<wgt id='1115'> +7.5766155e+04 </wgt>
<wgt id='1116'> +7.5201211e+04 </wgt>
<wgt id='1117'> +7.5130070e+04 </wgt>
<wgt id='1118'> +7.5478774e+04 </wgt>
<wgt id='1119'> +6.4959568e+04 </wgt>
<wgt id='1120'> +7.3965021e+04 </wgt>
<wgt id='1121'> +8.0992743e+04 </wgt>
<wgt id='1122'> +7.8638306e+04 </wgt>
<wgt id='1123'> +7.3056495e+04 </wgt>
<wgt id='1124'> +7.3090995e+04 </wgt>
<wgt id='1125'> +7.8062211e+04 </wgt>
<wgt id='1126'> +7.8136630e+04 </wgt>
<wgt id='1127'> +7.2399021e+04 </wgt>
<wgt id='1128'> +7.6537007e+04 </wgt>
<wgt id='1129'> +7.6299832e+04 </wgt>
<wgt id='1130'> +6.5226075e+04 </wgt>
<wgt id='1131'> +7.9315497e+04 </wgt>
<wgt id='1132'> +7.5944713e+04 </wgt>
<wgt id='1133'> +8.1609907e+04 </wgt>
<wgt id='1134'> +7.4973154e+04 </wgt>
<wgt id='1135'> +7.3358252e+04 </wgt>
<wgt id='1136'> +7.2062632e+04 </wgt>
<wgt id='1137'> +7.8217806e+04 </wgt>
<wgt id='1138'> +7.8746376e+04 </wgt>
<wgt id='1139'> +7.2380854e+04 </wgt>
<wgt id='1140'> +6.4023128e+04 </wgt>
<wgt id='1141'> +7.6116704e+04 </wgt>
<wgt id='1142'> +7.2363151e+04 </wgt>
<wgt id='1143'> +6.7854775e+04 </wgt>
<wgt id='1144'> +6.6855135e+04 </wgt>
<wgt id='1145'> +7.8056500e+04 </wgt>
<wgt id='1146'> +7.2346223e+04 </wgt>
<wgt id='1147'> +7.9539938e+04 </wgt>
<wgt id='1148'> +7.1473911e+04 </wgt>
<wgt id='1149'> +7.4395686e+04 </wgt>
<wgt id='1150'> +7.9716744e+04 </wgt>
<wgt id='1151'> +7.2145955e+04 </wgt>
<wgt id='1152'> +7.5562592e+04 </wgt>
<wgt id='1153'> +7.3938001e+04 </wgt>
<wgt id='1154'> +7.5431488e+04 </wgt>
<wgt id='1155'> +7.3911845e+04 </wgt>
<wgt id='1156'> +6.9538596e+04 </wgt>
<wgt id='1157'> +6.7766857e+04 </wgt>
<wgt id='1158'> +7.8246933e+04 </wgt>
<wgt id='1159'> +7.1171139e+04 </wgt>
<wgt id='1160'> +7.4633136e+04 </wgt>
<wgt id='1161'> +7.7145002e+04 </wgt>
<wgt id='1162'> +7.0746396e+04 </wgt>
<wgt id='1163'> +7.0940603e+04 </wgt>
<wgt id='1164'> +7.6239169e+04 </wgt>
<wgt id='1165'> +7.6123910e+04 </wgt>
<wgt id='1166'> +7.1265810e+04 </wgt>
<wgt id='1167'> +7.0957807e+04 </wgt>
<wgt id='1168'> +7.5715296e+04 </wgt>
<wgt id='1169'> +7.6205759e+04 </wgt>
<wgt id='1170'> +7.3227142e+04 </wgt>
<wgt id='1171'> +7.7580618e+04 </wgt>
<wgt id='1172'> +7.2676932e+04 </wgt>
<wgt id='1173'> +7.0183280e+04 </wgt>
<wgt id='1174'> +6.9540370e+04 </wgt>
<wgt id='1175'> +7.8195620e+04 </wgt>
<wgt id='1176'> +7.2864550e+04 </wgt>
<wgt id='1177'> +7.8880048e+04 </wgt>
<wgt id='1178'> +7.3076420e+04 </wgt>
<wgt id='1179'> +7.4746391e+04 </wgt>
<wgt id='1180'> +7.4997306e+04 </wgt>
<wgt id='1181'> +6.9077259e+04 </wgt>
<wgt id='1182'> +7.4304337e+04 </wgt>
<wgt id='1183'> +7.4224047e+04 </wgt>
<wgt id='1184'> +7.2836581e+04 </wgt>
<wgt id='1185'> +7.6717595e+04 </wgt>
<wgt id='1186'> +8.1757188e+04 </wgt>
<wgt id='1187'> +8.1200945e+04 </wgt>
<wgt id='1188'> +7.7627810e+04 </wgt>
<wgt id='1189'> +6.9273536e+04 </wgt>
<wgt id='1190'> +7.9478510e+04 </wgt>
<wgt id='1191'> +7.4500248e+04 </wgt>
<wgt id='1192'> +7.5461551e+04 </wgt>
<wgt id='1193'> +6.8746760e+04 </wgt>
<wgt id='1194'> +7.4794332e+04 </wgt>
<wgt id='1195'> +7.6299832e+04 </wgt>
<wgt id='1196'> +7.1919035e+04 </wgt>
<wgt id='1197'> +7.8933606e+04 </wgt>
<wgt id='1198'> +7.6907340e+04 </wgt>
<wgt id='1199'> +6.9812485e+04 </wgt>
<wgt id='1200'> +8.1922924e+04 </wgt>
<wgt id='1201'> +6.6644268e+04 </wgt>
<wgt id='1202'> +8.4335734e+04 </wgt>
<wgt id='1203'> +7.5859658e+04 </wgt>
<wgt id='1204'> +7.7626934e+04 </wgt>
<wgt id='1205'> +8.2394992e+04 </wgt>
<wgt id='1206'> +7.6822814e+04 </wgt>
<wgt id='1207'> +7.2541961e+04 </wgt>
<wgt id='1208'> +8.0925720e+04 </wgt>
<wgt id='1209'> +7.6084156e+04 </wgt>
<wgt id='1210'> +6.7238962e+04 </wgt>
<wgt id='1211'> +7.2424001e+04 </wgt>
<wgt id='1212'> +7.8547509e+04 </wgt>
<wgt id='1213'> +7.7092976e+04 </wgt>
<wgt id='1214'> +7.4144709e+04 </wgt>
<wgt id='1215'> +6.1726049e+04 </wgt>
<wgt id='1216'> +6.4509451e+04 </wgt>
<wgt id='1217'> +6.7151695e+04 </wgt>
<wgt id='1218'> +6.9142478e+04 </wgt>
<wgt id='1219'> +7.2563161e+04 </wgt>
<wgt id='1220'> +7.4943825e+04 </wgt>
<wgt id='1221'> +7.8618585e+04 </wgt>
<wgt id='1222'> +8.0843138e+04 </wgt>
<wgt id='1223'> +7.0627787e+04 </wgt>
<wgt id='1224'> +7.1035499e+04 </wgt>
<wgt id='1225'> +7.0133802e+04 </wgt>
<wgt id='1226'> +7.0824811e+04 </wgt>
<wgt id='1227'> +6.8853421e+04 </wgt>
<wgt id='1228'> +7.0442030e+04 </wgt>
<wgt id='1229'> +7.1288515e+04 </wgt>
<wgt id='1230'> +7.0250425e+04 </wgt>
<wgt id='1231'> +7.1006095e+04 </wgt>
<wgt id='1232'> +6.9993492e+04 </wgt>
<wgt id='1233'> +7.2584493e+04 </wgt>
<wgt id='1234'> +7.1122821e+04 </wgt>
<wgt id='1235'> +7.0164267e+04 </wgt>
<wgt id='1236'> +7.0176795e+04 </wgt>
<wgt id='1237'> +6.9697676e+04 </wgt>
<wgt id='1238'> +7.2044639e+04 </wgt>
<wgt id='1239'> +6.9469583e+04 </wgt>
<wgt id='1240'> +7.1185576e+04 </wgt>
<wgt id='1241'> +7.0276523e+04 </wgt>
<wgt id='1242'> +7.0573978e+04 </wgt>
<wgt id='1243'> +7.1108672e+04 </wgt>
<wgt id='1244'> +6.9653750e+04 </wgt>
<wgt id='1245'> +7.0553773e+04 </wgt>
<wgt id='1246'> +7.0544659e+04 </wgt>
<wgt id='1247'> +7.0252442e+04 </wgt>
<wgt id='1248'> +7.0854713e+04 </wgt>
<wgt id='1249'> +7.0751953e+04 </wgt>
<wgt id='1250'> +7.0584052e+04 </wgt>
<wgt id='1251'> +7.0461294e+04 </wgt>
<wgt id='1252'> +7.0471494e+04 </wgt>
<wgt id='1253'> +7.0623018e+04 </wgt>
<wgt id='1254'> +7.0544404e+04 </wgt>
<wgt id='1255'> +7.0785381e+04 </wgt>
<wgt id='1256'> +7.0575655e+04 </wgt>
<wgt id='1257'> +7.0478671e+04 </wgt>
<wgt id='1258'> +7.0769270e+04 </wgt>
<wgt id='1259'> +7.0822799e+04 </wgt>
<wgt id='1260'> +7.0872736e+04 </wgt>
<wgt id='1261'> +7.0664707e+04 </wgt>
<wgt id='1262'> +7.0932036e+04 </wgt>
<wgt id='1263'> +7.0698213e+04 </wgt>
<wgt id='1264'> +7.0866054e+04 </wgt>
<wgt id='1265'> +7.0688024e+04 </wgt>
<wgt id='1266'> +7.0638055e+04 </wgt>
<wgt id='1267'> +7.0802274e+04 </wgt>
<wgt id='1268'> +7.0441397e+04 </wgt>
<wgt id='1269'> +7.0770787e+04 </wgt>
<wgt id='1270'> +7.0793897e+04 </wgt>
<wgt id='1271'> +7.0577854e+04 </wgt>
<wgt id='1272'> +7.0413667e+04 </wgt>
<wgt id='1273'> +7.0611353e+04 </wgt>
<wgt id='1274'> +7.0535214e+04 </wgt>
<wgt id='1275'> +7.0939879e+04 </wgt>
<wgt id='1276'> +7.0800046e+04 </wgt>
<wgt id='1277'> +7.0716232e+04 </wgt>
<wgt id='1278'> +7.0636118e+04 </wgt>
<wgt id='1279'> +7.0384016e+04 </wgt>
<wgt id='1280'> +7.0770717e+04 </wgt>
<wgt id='1281'> +7.0705716e+04 </wgt>
<wgt id='1282'> +7.0625943e+04 </wgt>
<wgt id='1283'> +7.0571675e+04 </wgt>
<wgt id='1284'> +7.0489014e+04 </wgt>
<wgt id='1285'> +7.0405367e+04 </wgt>
<wgt id='1286'> +7.0499106e+04 </wgt>
<wgt id='1287'> +7.0646382e+04 </wgt>
<wgt id='1288'> +7.0652226e+04 </wgt>
<wgt id='1289'> +7.0433849e+04 </wgt>
<wgt id='1290'> +7.0819524e+04 </wgt>
<wgt id='1291'> +7.0759354e+04 </wgt>
<wgt id='1292'> +7.0734470e+04 </wgt>
<wgt id='1293'> +7.0773254e+04 </wgt>
<wgt id='1294'> +7.0468600e+04 </wgt>
<wgt id='1295'> +7.0675730e+04 </wgt>
<wgt id='1296'> +7.0701578e+04 </wgt>
<wgt id='1297'> +7.0449969e+04 </wgt>
<wgt id='1298'> +7.0638010e+04 </wgt>
<wgt id='1299'> +7.0481472e+04 </wgt>
<wgt id='1300'> +7.0580600e+04 </wgt>
<wgt id='1301'> +7.0571910e+04 </wgt>
<wgt id='1302'> +7.0708177e+04 </wgt>
<wgt id='1303'> +7.0580716e+04 </wgt>
<wgt id='1304'> +7.0698982e+04 </wgt>
<wgt id='1305'> +7.0706017e+04 </wgt>
<wgt id='1306'> +7.0667996e+04 </wgt>
<wgt id='1307'> +7.0580332e+04 </wgt>
<wgt id='1308'> +7.0516555e+04 </wgt>
<wgt id='1309'> +7.0659198e+04 </wgt>
<wgt id='1310'> +7.0715951e+04 </wgt>
<wgt id='1311'> +7.0642212e+04 </wgt>
<wgt id='1312'> +7.0639212e+04 </wgt>
<wgt id='1313'> +7.0603264e+04 </wgt>
<wgt id='1314'> +7.0695608e+04 </wgt>
<wgt id='1315'> +7.0670468e+04 </wgt>
<wgt id='1316'> +7.0502107e+04 </wgt>
<wgt id='1317'> +7.0716458e+04 </wgt>
<wgt id='1318'> +7.0695994e+04 </wgt>
<wgt id='1319'> +7.0545935e+04 </wgt>
<wgt id='1320'> +7.0565508e+04 </wgt>
<wgt id='1321'> +7.0673845e+04 </wgt>
<wgt id='1322'> +7.0599661e+04 </wgt>
<wgt id='1323'> +7.0586244e+04 </wgt>
<wgt id='1324'> +6.8093247e+04 </wgt>
<wgt id='1325'> +7.2487877e+04 </wgt>
<wgt id='1326'> +7.6553011e+04 </wgt>
<wgt id='1327'> +7.3956216e+04 </wgt>
<wgt id='1328'> +7.6901269e+04 </wgt>
<wgt id='1329'> +7.5657867e+04 </wgt>
<wgt id='1330'> +7.7222070e+04 </wgt>
<wgt id='1331'> +7.5014418e+04 </wgt>
<wgt id='1332'> +7.6043636e+04 </wgt>
<wgt id='1333'> +7.5561031e+04 </wgt>
<wgt id='1334'> +7.5030736e+04 </wgt>
<wgt id='1335'> +7.9122166e+04 </wgt>
<wgt id='1336'> +7.4724899e+04 </wgt>
<wgt id='1337'> +7.7495504e+04 </wgt>
<wgt id='1338'> +7.7722234e+04 </wgt>
<wgt id='1339'> +7.8899286e+04 </wgt>
<wgt id='1340'> +7.7187457e+04 </wgt>
<wgt id='1341'> +8.0660316e+04 </wgt>
<wgt id='1342'> +7.5848172e+04 </wgt>
<wgt id='1343'> +7.7467113e+04 </wgt>
<wgt id='1344'> +7.6402576e+04 </wgt>
<wgt id='1345'> +7.7544033e+04 </wgt>
<wgt id='1346'> +8.2269987e+04 </wgt>
<wgt id='1347'> +7.6823999e+04 </wgt>
<wgt id='1348'> +7.4586157e+04 </wgt>
<wgt id='1349'> +7.7131042e+04 </wgt>
<wgt id='1350'> +7.6490593e+04 </wgt>
<wgt id='1351'> +7.6569431e+04 </wgt>
<wgt id='1352'> +7.9087212e+04 </wgt>
<wgt id='1353'> +7.4739193e+04 </wgt>
<wgt id='1354'> +7.5854682e+04 </wgt>
<wgt id='1355'> +7.7479844e+04 </wgt>
<wgt id='1356'> +7.6990782e+04 </wgt>
<wgt id='1357'> +7.7069320e+04 </wgt>
<wgt id='1358'> +7.5417763e+04 </wgt>
<wgt id='1359'> +7.7698785e+04 </wgt>
<wgt id='1360'> +7.6113292e+04 </wgt>
<wgt id='1361'> +7.3714679e+04 </wgt>
<wgt id='1362'> +7.7671079e+04 </wgt>
<wgt id='1363'> +7.5790006e+04 </wgt>
<wgt id='1364'> +7.7703093e+04 </wgt>
<wgt id='1365'> +7.6359087e+04 </wgt>
<wgt id='1366'> +7.5928386e+04 </wgt>
<wgt id='1367'> +7.6444788e+04 </wgt>
<wgt id='1368'> +7.6928194e+04 </wgt>
<wgt id='1369'> +7.6462372e+04 </wgt>
<wgt id='1370'> +7.7253978e+04 </wgt>
<wgt id='1371'> +7.7287415e+04 </wgt>
<wgt id='1372'> +7.5197624e+04 </wgt>
<wgt id='1373'> +7.9587670e+04 </wgt>
<wgt id='1374'> +7.6628936e+04 </wgt>
<wgt id='1375'> +7.5794530e+04 </wgt>
<wgt id='1376'> +7.6402363e+04 </wgt>
<wgt id='1377'> +7.8169862e+04 </wgt>
<wgt id='1378'> +7.9363998e+04 </wgt>
<wgt id='1379'> +7.7003843e+04 </wgt>
<wgt id='1380'> +7.4569357e+04 </wgt>
<wgt id='1381'> +7.5097914e+04 </wgt>
<wgt id='1382'> +7.8138648e+04 </wgt>
<wgt id='1383'> +7.6389984e+04 </wgt>
<wgt id='1384'> +7.4977326e+04 </wgt>
<wgt id='1385'> +7.7953637e+04 </wgt>
<wgt id='1386'> +7.9120857e+04 </wgt>
<wgt id='1387'> +7.7120598e+04 </wgt>
<wgt id='1388'> +7.5732898e+04 </wgt>
<wgt id='1389'> +7.5566746e+04 </wgt>
<wgt id='1390'> +7.9325426e+04 </wgt>
<wgt id='1391'> +7.7559560e+04 </wgt>
<wgt id='1392'> +7.8147222e+04 </wgt>
<wgt id='1393'> +8.0496022e+04 </wgt>
<wgt id='1394'> +7.6359087e+04 </wgt>
<wgt id='1395'> +7.7906969e+04 </wgt>
<wgt id='1396'> +7.5710136e+04 </wgt>
<wgt id='1397'> +7.6443781e+04 </wgt>
<wgt id='1398'> +7.7701611e+04 </wgt>
<wgt id='1399'> +7.7099668e+04 </wgt>
<wgt id='1400'> +7.5741144e+04 </wgt>
<wgt id='1401'> +7.7536208e+04 </wgt>
<wgt id='1402'> +7.5558300e+04 </wgt>
<wgt id='1403'> +7.7214148e+04 </wgt>
<wgt id='1404'> +7.7981916e+04 </wgt>
<wgt id='1405'> +7.7732823e+04 </wgt>
<wgt id='1406'> +7.4892941e+04 </wgt>
<wgt id='1407'> +7.6934280e+04 </wgt>
<wgt id='1408'> +7.6348139e+04 </wgt>
<wgt id='1409'> +7.4974887e+04 </wgt>
<wgt id='1410'> +7.4139658e+04 </wgt>
<wgt id='1411'> +7.7262802e+04 </wgt>
<wgt id='1412'> +7.5615501e+04 </wgt>
<wgt id='1413'> +7.8018669e+04 </wgt>
<wgt id='1414'> +7.9089481e+04 </wgt>
<wgt id='1415'> +7.7749995e+04 </wgt>
<wgt id='1416'> +7.8523337e+04 </wgt>
<wgt id='1417'> +7.7725325e+04 </wgt>
<wgt id='1418'> +7.5239816e+04 </wgt>
<wgt id='1419'> +7.6946166e+04 </wgt>
<wgt id='1420'> +7.8231620e+04 </wgt>
<wgt id='1421'> +7.4572991e+04 </wgt>
<wgt id='1422'> +7.8134543e+04 </wgt>
<wgt id='1423'> +7.9203131e+04 </wgt>
<wgt id='1424'> +7.8000083e+04 </wgt>
<wgt id='1425'> +7.5164035e+04 </wgt>
<wgt id='1426'> +7.6023975e+04 </wgt>
<wgt id='1427'> +7.7731931e+04 </wgt>
<wgt id='1428'> +7.4830603e+04 </wgt>
<wgt id='1429'> +7.5959185e+04 </wgt>
<wgt id='1430'> +7.8616381e+04 </wgt>
<wgt id='1431'> +7.7052500e+04 </wgt>
<wgt id='1432'> +7.6630142e+04 </wgt>
<wgt id='1433'> +7.7665296e+04 </wgt>
<wgt id='1434'> +7.7040890e+04 </wgt>
<wgt id='1435'> +7.7169643e+04 </wgt>
<wgt id='1436'> +7.8087224e+04 </wgt>
<wgt id='1437'> +7.7101538e+04 </wgt>
<wgt id='1438'> +7.7421002e+04 </wgt>
<wgt id='1439'> +7.7182831e+04 </wgt>
<wgt id='1440'> +7.7209217e+04 </wgt>
<wgt id='1441'> +7.7148439e+04 </wgt>
<wgt id='1442'> +7.7148678e+04 </wgt>
<wgt id='1443'> +7.7191579e+04 </wgt>
<wgt id='1444'> +7.6696134e+04 </wgt>
<wgt id='1445'> +7.6963238e+04 </wgt>
<wgt id='1446'> +7.7354703e+04 </wgt>
<wgt id='1447'> +7.6997326e+04 </wgt>
<wgt id='1448'> +7.7128807e+04 </wgt>
<wgt id='1449'> +7.6999891e+04 </wgt>
<wgt id='1450'> +7.7278822e+04 </wgt>
<wgt id='1451'> +7.7208887e+04 </wgt>
<wgt id='1452'> +7.7008090e+04 </wgt>
<wgt id='1453'> +7.7129899e+04 </wgt>
<wgt id='1454'> +7.6883905e+04 </wgt>
<wgt id='1455'> +7.7047046e+04 </wgt>
<wgt id='1456'> +7.7138100e+04 </wgt>
<wgt id='1457'> +7.7124188e+04 </wgt>
<wgt id='1458'> +7.7217072e+04 </wgt>
<wgt id='1459'> +7.7080293e+04 </wgt>
<wgt id='1460'> +7.6920180e+04 </wgt>
<wgt id='1461'> +7.7052590e+04 </wgt>
<wgt id='1462'> +7.7221750e+04 </wgt>
<wgt id='1463'> +7.7150009e+04 </wgt>
<wgt id='1464'> +7.7159098e+04 </wgt>
<wgt id='1465'> +7.6981176e+04 </wgt>
<wgt id='1466'> +7.7043529e+04 </wgt>
<wgt id='1467'> +7.7074940e+04 </wgt>
<wgt id='1468'> +7.7064473e+04 </wgt>
<wgt id='1469'> +7.7037666e+04 </wgt>
<wgt id='1470'> +7.7116066e+04 </wgt>
<wgt id='1471'> +7.6976475e+04 </wgt>
<wgt id='1472'> +7.7079784e+04 </wgt>
<wgt id='1473'> +7.7045944e+04 </wgt>
<wgt id='1474'> +7.7051732e+04 </wgt>
<wgt id='1475'> +7.7081332e+04 </wgt>
<wgt id='1476'> +7.7004304e+04 </wgt>
<wgt id='1477'> +7.7040697e+04 </wgt>
<wgt id='1478'> +7.7056933e+04 </wgt>
<wgt id='1479'> +7.7000093e+04 </wgt>
<wgt id='1480'> +7.7046444e+04 </wgt>
<wgt id='1481'> +7.7105103e+04 </wgt>
<wgt id='1482'> +7.5959185e+04 </wgt>
<wgt id='1483'> +7.8616381e+04 </wgt>
<wgt id='1484'> +7.9210814e+04 </wgt>
<wgt id='1485'> +7.8137775e+04 </wgt>
<wgt id='1486'> +7.8012402e+04 </wgt>
<wgt id='1487'> +8.1591757e+04 </wgt>
<wgt id='1488'> +8.1228333e+04 </wgt>
<wgt id='1489'> +7.8658228e+04 </wgt>
<wgt id='1490'> +8.0567923e+04 </wgt>
<wgt id='1491'> +8.0445162e+04 </wgt>
<wgt id='1492'> +8.1194216e+04 </wgt>
<wgt id='1493'> +7.8961940e+04 </wgt>
<wgt id='1494'> +7.8208237e+04 </wgt>
<wgt id='1495'> +8.2680613e+04 </wgt>
<wgt id='1496'> +8.0915206e+04 </wgt>
<wgt id='1497'> +8.2965232e+04 </wgt>
<wgt id='1498'> +7.7973334e+04 </wgt>
<wgt id='1499'> +7.8510598e+04 </wgt>
<wgt id='1500'> +7.8354559e+04 </wgt>
<wgt id='1501'> +8.0596952e+04 </wgt>
<wgt id='1502'> +7.8308430e+04 </wgt>
<wgt id='1503'> +8.0860009e+04 </wgt>
<wgt id='1504'> +7.9685853e+04 </wgt>
<wgt id='1505'> +7.6759470e+04 </wgt>
<wgt id='1506'> +8.2375616e+04 </wgt>
<wgt id='1507'> +7.8541256e+04 </wgt>
<wgt id='1508'> +8.2247549e+04 </wgt>
<wgt id='1509'> +7.7412967e+04 </wgt>
<wgt id='1510'> +8.0609433e+04 </wgt>
<wgt id='1511'> +7.8216326e+04 </wgt>
<wgt id='1512'> +8.0202272e+04 </wgt>
<wgt id='1513'> +8.0324834e+04 </wgt>
<wgt id='1514'> +8.0634625e+04 </wgt>
<wgt id='1515'> +8.1417211e+04 </wgt>
<wgt id='1516'> +8.0650059e+04 </wgt>
<wgt id='1517'> +7.7888237e+04 </wgt>
<wgt id='1518'> +7.9382245e+04 </wgt>
<wgt id='1519'> +7.8997319e+04 </wgt>
<wgt id='1520'> +7.7538086e+04 </wgt>
<wgt id='1521'> +7.9779867e+04 </wgt>
<wgt id='1522'> +7.9503650e+04 </wgt>
<wgt id='1523'> +7.9832475e+04 </wgt>
<wgt id='1524'> +7.7967364e+04 </wgt>
<wgt id='1525'> +7.6672863e+04 </wgt>
<wgt id='1526'> +7.6278869e+04 </wgt>
<wgt id='1527'> +7.9230033e+04 </wgt>
<wgt id='1528'> +7.7388731e+04 </wgt>
<wgt id='1529'> +7.9522838e+04 </wgt>
<wgt id='1530'> +7.7865099e+04 </wgt>
<wgt id='1531'> +8.0566989e+04 </wgt>
<wgt id='1532'> +8.0246544e+04 </wgt>
<wgt id='1533'> +7.7977203e+04 </wgt>
<wgt id='1534'> +7.8739668e+04 </wgt>
<wgt id='1535'> +8.1533782e+04 </wgt>
<wgt id='1536'> +7.7877821e+04 </wgt>
<wgt id='1537'> +7.8854447e+04 </wgt>
<wgt id='1538'> +7.9000117e+04 </wgt>
<wgt id='1539'> +7.9146697e+04 </wgt>
<wgt id='1540'> +8.0011687e+04 </wgt>
<wgt id='1541'> +7.7782709e+04 </wgt>
<wgt id='1542'> +7.9608432e+04 </wgt>
<wgt id='1543'> +7.8584890e+04 </wgt>
<wgt id='1544'> +7.8097843e+04 </wgt>
<wgt id='1545'> +7.6895512e+04 </wgt>
<wgt id='1546'> +7.8342551e+04 </wgt>
<wgt id='1547'> +7.7731847e+04 </wgt>
<wgt id='1548'> +8.0046593e+04 </wgt>
<wgt id='1549'> +7.9621350e+04 </wgt>
<wgt id='1550'> +7.8267852e+04 </wgt>
<wgt id='1551'> +7.9242564e+04 </wgt>
<wgt id='1552'> +7.6458157e+04 </wgt>
<wgt id='1553'> +7.9315379e+04 </wgt>
<wgt id='1554'> +7.8483842e+04 </wgt>
<wgt id='1555'> +8.0875646e+04 </wgt>
<wgt id='1556'> +7.9886426e+04 </wgt>
<wgt id='1557'> +8.0046951e+04 </wgt>
<wgt id='1558'> +7.7229418e+04 </wgt>
<wgt id='1559'> +7.8077050e+04 </wgt>
<wgt id='1560'> +7.8403254e+04 </wgt>
<wgt id='1561'> +7.8095927e+04 </wgt>
<wgt id='1562'> +7.8658278e+04 </wgt>
<wgt id='1563'> +8.0473156e+04 </wgt>
<wgt id='1564'> +7.8262407e+04 </wgt>
<wgt id='1565'> +8.0409906e+04 </wgt>
<wgt id='1566'> +8.0755195e+04 </wgt>
<wgt id='1567'> +7.9897872e+04 </wgt>
<wgt id='1568'> +7.8523078e+04 </wgt>
<wgt id='1569'> +7.9543883e+04 </wgt>
<wgt id='1570'> +7.7711582e+04 </wgt>
<wgt id='1571'> +7.8686653e+04 </wgt>
<wgt id='1572'> +8.0514360e+04 </wgt>
<wgt id='1573'> +7.9428147e+04 </wgt>
<wgt id='1574'> +7.9594399e+04 </wgt>
<wgt id='1575'> +7.8294032e+04 </wgt>
<wgt id='1576'> +7.8253209e+04 </wgt>
<wgt id='1577'> +8.0588247e+04 </wgt>
<wgt id='1578'> +7.8122345e+04 </wgt>
<wgt id='1579'> +8.0625327e+04 </wgt>
<wgt id='1580'> +7.8142103e+04 </wgt>
<wgt id='1581'> +7.7310966e+04 </wgt>
<wgt id='1582'> +7.9021227e+04 </wgt>
<wgt id='1583'> +7.6909504e+04 </wgt>
<wgt id='1584'> +8.1418068e+04 </wgt>
<wgt id='1585'> +7.4495764e+04 </wgt>
<wgt id='1586'> +7.0597070e+04 </wgt>
<wgt id='1587'> +7.4930713e+04 </wgt>
<wgt id='1588'> +7.5959185e+04 </wgt>
<wgt id='1589'> +7.6607157e+04 </wgt>
<wgt id='1590'> +7.8011970e+04 </wgt>
<wgt id='1591'> +7.8616381e+04 </wgt>
<wgt id='1592'> +8.0019716e+04 </wgt>
<wgt id='1593'> +7.6043808e+04 </wgt>
<wgt id='1594'> +7.4902516e+04 </wgt>
<wgt id='1595'> +7.6852156e+04 </wgt>
<wgt id='1596'> +7.8077026e+04 </wgt>
<wgt id='1597'> +7.2596145e+04 </wgt>
<wgt id='1598'> +8.1785927e+04 </wgt>
<wgt id='1599'> +7.2777859e+04 </wgt>
<wgt id='1600'> +8.1914275e+04 </wgt>
<wgt id='1601'> +7.1449540e+04 </wgt>
<wgt id='1602'> +7.8498469e+04 </wgt>
<wgt id='1603'> +7.4310865e+04 </wgt>
<wgt id='1604'> +7.4875065e+04 </wgt>
<wgt id='1605'> +7.8373474e+04 </wgt>
<wgt id='1606'> +7.4124260e+04 </wgt>
<wgt id='1607'> +7.6914896e+04 </wgt>
<wgt id='1608'> +7.7594379e+04 </wgt>
<wgt id='1609'> +7.2960633e+04 </wgt>
<wgt id='1610'> +7.6731061e+04 </wgt>
<wgt id='1611'> +7.5375661e+04 </wgt>
<wgt id='1612'> +7.5581010e+04 </wgt>
<wgt id='1613'> +7.6394058e+04 </wgt>
<wgt id='1614'> +7.4590011e+04 </wgt>
<wgt id='1615'> +7.8800534e+04 </wgt>
<wgt id='1616'> +7.7864206e+04 </wgt>
<wgt id='1617'> +7.3422933e+04 </wgt>
<wgt id='1618'> +7.5537142e+04 </wgt>
<wgt id='1619'> +7.7521094e+04 </wgt>
<wgt id='1620'> +7.3423885e+04 </wgt>
<wgt id='1621'> +7.9177574e+04 </wgt>
<wgt id='1622'> +7.3720829e+04 </wgt>
<wgt id='1623'> +7.7845521e+04 </wgt>
<wgt id='1624'> +7.6257568e+04 </wgt>
<wgt id='1625'> +7.3779128e+04 </wgt>
<wgt id='1626'> +7.5241971e+04 </wgt>
<wgt id='1627'> +7.6584219e+04 </wgt>
<wgt id='1628'> +7.2752477e+04 </wgt>
<wgt id='1629'> +7.9107254e+04 </wgt>
<wgt id='1630'> +7.1590362e+04 </wgt>
<wgt id='1631'> +8.1382105e+04 </wgt>
<wgt id='1632'> +7.1893985e+04 </wgt>
<wgt id='1633'> +8.2315425e+04 </wgt>
<wgt id='1634'> +7.5544656e+04 </wgt>
<wgt id='1635'> +7.6744815e+04 </wgt>
<wgt id='1636'> +8.0739956e+04 </wgt>
<wgt id='1637'> +7.3973933e+04 </wgt>
<wgt id='1638'> +7.5266880e+04 </wgt>
<wgt id='1639'> +7.6054726e+04 </wgt>
<wgt id='1640'> +7.2020166e+04 </wgt>
<wgt id='1641'> +7.9244681e+04 </wgt>
<wgt id='1642'> +8.1087086e+04 </wgt>
<wgt id='1643'> +7.2910967e+04 </wgt>
<wgt id='1644'> +7.2671386e+04 </wgt>
<wgt id='1645'> +8.0968408e+04 </wgt>
<wgt id='1646'> +7.8463583e+04 </wgt>
<wgt id='1647'> +7.4107519e+04 </wgt>
<wgt id='1648'> +7.5842002e+04 </wgt>
<wgt id='1649'> +7.6094397e+04 </wgt>
<wgt id='1650'> +7.5929888e+04 </wgt>
<wgt id='1651'> +7.6172545e+04 </wgt>
<wgt id='1652'> +7.4098451e+04 </wgt>
<wgt id='1653'> +7.5154026e+04 </wgt>
<wgt id='1654'> +7.6789122e+04 </wgt>
<wgt id='1655'> +7.7417269e+04 </wgt>
<wgt id='1656'> +8.2765456e+04 </wgt>
<wgt id='1657'> +8.3099637e+04 </wgt>
<wgt id='1658'> +8.1826341e+04 </wgt>
<wgt id='1659'> +8.3109320e+04 </wgt>
<wgt id='1660'> +8.2499589e+04 </wgt>
<wgt id='1661'> +8.2041219e+04 </wgt>
<wgt id='1662'> +8.2555027e+04 </wgt>
<wgt id='1663'> +8.2510625e+04 </wgt>
<wgt id='1664'> +8.2198158e+04 </wgt>
<wgt id='1665'> +8.1724393e+04 </wgt>
<wgt id='1666'> +8.3028743e+04 </wgt>
<wgt id='1667'> +8.3828905e+04 </wgt>
<wgt id='1668'> +8.2008556e+04 </wgt>
<wgt id='1669'> +8.3091896e+04 </wgt>
<wgt id='1670'> +8.2770052e+04 </wgt>
<wgt id='1671'> +8.2345517e+04 </wgt>
<wgt id='1672'> +8.3251975e+04 </wgt>
<wgt id='1673'> +8.2421882e+04 </wgt>
<wgt id='1674'> +8.3144621e+04 </wgt>
<wgt id='1675'> +8.1403720e+04 </wgt>
<wgt id='1676'> +8.3351597e+04 </wgt>
<wgt id='1677'> +8.4228661e+04 </wgt>
<wgt id='1678'> +8.0957740e+04 </wgt>
<wgt id='1679'> +8.2627421e+04 </wgt>
<wgt id='1680'> +8.4432545e+04 </wgt>
<wgt id='1681'> +8.2364824e+04 </wgt>
<wgt id='1682'> +8.2337766e+04 </wgt>
<wgt id='1683'> +8.1209730e+04 </wgt>
<wgt id='1684'> +8.4039907e+04 </wgt>
<wgt id='1685'> +8.2643425e+04 </wgt>
<wgt id='1686'> +8.2689746e+04 </wgt>
<wgt id='1687'> +8.0118151e+04 </wgt>
<wgt id='1688'> +8.6608353e+04 </wgt>
<wgt id='1689'> +8.0777301e+04 </wgt>
<wgt id='1690'> +8.5330645e+04 </wgt>
<wgt id='1691'> +8.1135027e+04 </wgt>
<wgt id='1692'> +8.4225599e+04 </wgt>
<wgt id='1693'> +7.6706784e+04 </wgt>
<wgt id='1694'> +9.1583094e+04 </wgt>
<wgt id='1695'> +8.3628078e+04 </wgt>
<wgt id='1696'> +8.1683345e+04 </wgt>
<wgt id='1697'> +8.0896234e+04 </wgt>
<wgt id='1698'> +8.5122298e+04 </wgt>
<wgt id='1699'> +8.4244620e+04 </wgt>
<wgt id='1700'> +7.9496259e+04 </wgt>
<wgt id='1701'> +8.6917025e+04 </wgt>
<wgt id='1702'> +8.0116549e+04 </wgt>
<wgt id='1703'> +8.3725786e+04 </wgt>
<wgt id='1704'> +8.2247304e+04 </wgt>
<wgt id='1705'> +8.1185186e+04 </wgt>
<wgt id='1706'> +8.4287959e+04 </wgt>
<wgt id='1707'> +8.0689659e+04 </wgt>
<wgt id='1708'> +8.4118832e+04 </wgt>
<wgt id='1709'> +8.4396987e+04 </wgt>
<wgt id='1710'> +8.1136800e+04 </wgt>
<wgt id='1711'> +8.3115429e+04 </wgt>
<wgt id='1712'> +8.2004613e+04 </wgt>
<wgt id='1713'> +8.1676786e+04 </wgt>
<wgt id='1714'> +8.3078585e+04 </wgt>
<wgt id='1715'> +8.1739411e+04 </wgt>
<wgt id='1716'> +7.7702365e+04 </wgt>
<wgt id='1717'> +8.2228868e+04 </wgt>
<wgt id='1718'> +8.2029566e+04 </wgt>
<wgt id='1719'> +8.2484276e+04 </wgt>
<wgt id='1720'> +8.2613051e+04 </wgt>
<wgt id='1721'> +8.1878015e+04 </wgt>
<wgt id='1722'> +8.3026505e+04 </wgt>
<wgt id='1723'> +8.0921897e+04 </wgt>
<wgt id='1724'> +8.2555770e+04 </wgt>
<wgt id='1725'> +8.1963230e+04 </wgt>
<wgt id='1726'> +8.2310355e+04 </wgt>
<wgt id='1727'> +8.2144802e+04 </wgt>
<wgt id='1728'> +8.3160211e+04 </wgt>
<wgt id='1729'> +8.1328074e+04 </wgt>
<wgt id='1730'> +8.1393244e+04 </wgt>
<wgt id='1731'> +8.2824211e+04 </wgt>
<wgt id='1732'> +8.1452372e+04 </wgt>
<wgt id='1733'> +8.1452372e+04 </wgt>
<wgt id='1734'> +8.2994011e+04 </wgt>
<wgt id='1735'> +8.1712063e+04 </wgt>
<wgt id='1736'> +8.2964699e+04 </wgt>
<wgt id='1737'> +8.1219356e+04 </wgt>
<wgt id='1738'> +8.1124106e+04 </wgt>
<wgt id='1739'> +8.4106336e+04 </wgt>
<wgt id='1740'> +8.2263808e+04 </wgt>
<wgt id='1741'> +8.2151792e+04 </wgt>
<wgt id='1742'> +8.2240377e+04 </wgt>
<wgt id='1743'> +8.2239529e+04 </wgt>
<wgt id='1744'> +8.2344260e+04 </wgt>
<wgt id='1745'> +8.1916649e+04 </wgt>
<wgt id='1746'> +8.0497861e+04 </wgt>
<wgt id='1747'> +8.3248038e+04 </wgt>
<wgt id='1748'> +8.2760375e+04 </wgt>
<wgt id='1749'> +8.0620978e+04 </wgt>
<wgt id='1750'> +8.1928940e+04 </wgt>
<wgt id='1751'> +8.2552469e+04 </wgt>
<wgt id='1752'> +8.2502831e+04 </wgt>
<wgt id='1753'> +8.1859099e+04 </wgt>
<wgt id='1754'> +8.2106047e+04 </wgt>
<wgt id='1755'> +8.2301563e+04 </wgt>
<wgt id='1756'> +8.1744398e+04 </wgt>
<wgt id='1757'> +8.3524785e+04 </wgt>
<wgt id='1758'> +8.2382292e+04 </wgt>
<wgt id='1759'> +8.2042437e+04 </wgt>
<wgt id='1760'> +8.2153841e+04 </wgt>
<wgt id='1761'> +8.2398827e+04 </wgt>
<wgt id='1762'> +8.1695021e+04 </wgt>
<wgt id='1763'> +8.3111356e+04 </wgt>
<wgt id='1764'> +8.2261719e+04 </wgt>
<wgt id='1765'> +8.2082672e+04 </wgt>
<wgt id='1766'> +8.2249711e+04 </wgt>
<wgt id='1767'> +8.2193446e+04 </wgt>
<wgt id='1768'> +8.1915342e+04 </wgt>
<wgt id='1769'> +8.2462751e+04 </wgt>
<wgt id='1770'> +8.2550946e+04 </wgt>
<wgt id='1771'> +8.1635615e+04 </wgt>
<wgt id='1772'> +8.2116064e+04 </wgt>
<wgt id='1773'> +8.2653839e+04 </wgt>
<wgt id='1774'> +8.3130980e+04 </wgt>
<wgt id='1775'> +8.1605175e+04 </wgt>
<wgt id='1776'> +8.2421915e+04 </wgt>
<wgt id='1777'> +8.2171514e+04 </wgt>
<wgt id='1778'> +8.1935282e+04 </wgt>
<wgt id='1779'> +8.2224738e+04 </wgt>
<wgt id='1780'> +8.0058782e+04 </wgt>
<wgt id='1781'> +8.2893566e+04 </wgt>
<wgt id='1782'> +8.2228868e+04 </wgt>
<wgt id='1783'> +8.2282832e+04 </wgt>
<wgt id='1784'> +7.8463855e+04 </wgt>
<wgt id='1785'> +7.7496570e+04 </wgt>
<wgt id='1786'> +8.3196576e+04 </wgt>
<wgt id='1787'> +7.8425252e+04 </wgt>
<wgt id='1788'> +7.8527139e+04 </wgt>
<wgt id='1789'> +7.8149888e+04 </wgt>
<wgt id='1790'> +7.7371835e+04 </wgt>
<wgt id='1791'> +7.7784185e+04 </wgt>
<wgt id='1792'> +7.8757569e+04 </wgt>
<wgt id='1793'> +7.7868205e+04 </wgt>
<wgt id='1794'> +7.8853337e+04 </wgt>
<wgt id='1795'> +7.9528343e+04 </wgt>
<wgt id='1796'> +7.8583202e+04 </wgt>
<wgt id='1797'> +8.0677410e+04 </wgt>
<wgt id='1798'> +7.8015903e+04 </wgt>
<wgt id='1799'> +7.7931905e+04 </wgt>
<wgt id='1800'> +7.8199497e+04 </wgt>
<wgt id='1801'> +7.6959560e+04 </wgt>
<wgt id='1802'> +7.8282046e+04 </wgt>
<wgt id='1803'> +7.8220969e+04 </wgt>
<wgt id='1804'> +7.8403667e+04 </wgt>
<wgt id='1805'> +7.8700795e+04 </wgt>
<wgt id='1806'> +7.7995819e+04 </wgt>
<wgt id='1807'> +7.8256140e+04 </wgt>
<wgt id='1808'> +7.8269314e+04 </wgt>
<wgt id='1809'> +7.8289954e+04 </wgt>
<wgt id='1810'> +7.8195546e+04 </wgt>
<wgt id='1811'> +7.8340609e+04 </wgt>
<wgt id='1812'> +7.8488191e+04 </wgt>
<wgt id='1813'> +7.8205074e+04 </wgt>
<wgt id='1814'> +7.7892260e+04 </wgt>
<wgt id='1815'> +7.8420381e+04 </wgt>
<wgt id='1816'> +7.8229769e+04 </wgt>
<wgt id='1817'> +7.7855227e+04 </wgt>
<wgt id='1818'> +7.8632940e+04 </wgt>
<wgt id='1819'> +7.8229904e+04 </wgt>
<wgt id='1820'> +7.7845434e+04 </wgt>
<wgt id='1821'> +7.8309898e+04 </wgt>
<wgt id='1822'> +7.8143363e+04 </wgt>
<wgt id='1823'> +7.6593586e+04 </wgt>
<wgt id='1824'> +7.8400358e+04 </wgt>
<wgt id='1825'> +7.7674225e+04 </wgt>
<wgt id='1826'> +7.9401291e+04 </wgt>
<wgt id='1827'> +7.7578648e+04 </wgt>
<wgt id='1828'> +7.7600566e+04 </wgt>
<wgt id='1829'> +7.7552828e+04 </wgt>
<wgt id='1830'> +7.7671929e+04 </wgt>
<wgt id='1831'> +7.7481492e+04 </wgt>
<wgt id='1832'> +7.7759158e+04 </wgt>
<wgt id='1833'> +7.7394552e+04 </wgt>
<wgt id='1834'> +7.7795144e+04 </wgt>
<wgt id='1835'> +7.7357108e+04 </wgt>
<wgt id='1836'> +7.7681191e+04 </wgt>
<wgt id='1837'> +7.7471923e+04 </wgt>
<wgt id='1838'> +7.7753723e+04 </wgt>
<wgt id='1839'> +7.7399913e+04 </wgt>
<wgt id='1840'> +7.7334792e+04 </wgt>
<wgt id='1841'> +7.7820715e+04 </wgt>
<wgt id='1842'> +7.7470074e+04 </wgt>
<wgt id='1843'> +7.7698305e+04 </wgt>
<wgt id='1844'> +7.7571557e+04 </wgt>
<wgt id='1845'> +7.7561016e+04 </wgt>
<wgt id='1846'> +7.7432084e+04 </wgt>
<wgt id='1847'> +7.7713237e+04 </wgt>
<wgt id='1848'> +7.6876771e+04 </wgt>
<wgt id='1849'> +7.8138868e+04 </wgt>
<wgt id='1850'> +7.7685572e+04 </wgt>
<wgt id='1851'> +7.7445107e+04 </wgt>
<wgt id='1852'> +7.7371880e+04 </wgt>
<wgt id='1853'> +7.7542209e+04 </wgt>
<wgt id='1854'> +7.7633552e+04 </wgt>
<wgt id='1855'> +7.7625598e+04 </wgt>
<wgt id='1856'> +8.2241210e+04 </wgt>
<wgt id='1857'> +8.2220250e+04 </wgt>
<wgt id='1858'> +8.2249965e+04 </wgt>
<wgt id='1859'> +8.2184280e+04 </wgt>
<wgt id='1860'> +8.2244368e+04 </wgt>
<wgt id='1861'> +8.2439875e+04 </wgt>
<wgt id='1862'> +8.2573665e+04 </wgt>
<wgt id='1863'> +8.1694059e+04 </wgt>
<wgt id='1864'> +8.2457489e+04 </wgt>
<wgt id='1865'> +8.2472106e+04 </wgt>
<wgt id='1866'> +8.2384706e+04 </wgt>
<wgt id='1867'> +8.2293551e+04 </wgt>
<wgt id='1868'> +8.2811989e+04 </wgt>
<wgt id='1869'> +8.2148419e+04 </wgt>
<wgt id='1870'> +8.2635698e+04 </wgt>
<wgt id='1871'> +8.2196159e+04 </wgt>
<wgt id='1872'> +8.2490396e+04 </wgt>
<wgt id='1873'> +8.2256912e+04 </wgt>
<wgt id='1874'> +8.2191635e+04 </wgt>
<wgt id='1875'> +8.2247196e+04 </wgt>
<wgt id='1876'> +8.1940969e+04 </wgt>
<wgt id='1877'> +8.3006065e+04 </wgt>
<wgt id='1878'> +8.1721006e+04 </wgt>
<wgt id='1879'> +8.2494677e+04 </wgt>
<wgt id='1880'> +8.2627109e+04 </wgt>
<wgt id='1881'> +8.2954562e+04 </wgt>
<wgt id='1882'> +8.2286260e+04 </wgt>
<wgt id='1883'> +8.1970459e+04 </wgt>
<wgt id='1884'> +8.2491437e+04 </wgt>
<wgt id='1885'> +8.1305810e+04 </wgt>
<wgt id='1886'> +2.4531753e+04 </wgt>
<wgt id='1887'> +4.1480190e+04 </wgt>
<wgt id='1888'> +5.8446077e+04 </wgt>
<wgt id='1889'> +6.6816545e+04 </wgt>
</rwgt>
</event>
<event npLO=" -1 " npNLO=" 0 ">
 5      1 +7.4519530e+04 1.40370960e+01 7.55820760e-03 1.20096430e-01
       -2 -1    0    0    0  501 +0.0000000000e+00 +0.0000000000e+00 +1.0481451003e+00 1.0481451003e+00 0.0000000000e+00 0.0000e+00 1.0000e+00
        1 -1    0    0  501    0 +0.0000000000e+00 +0.0000000000e+00 -1.5732930008e+03 1.5732930008e+03 0.0000000000e+00 0.0000e+00 -1.0000e+00
      -24  2    1    2    0    0 +0.0000000000e+00 +0.0000000000e+00 -1.5722448557e+03 1.5743411459e+03 8.1216731041e+01 0.0000e+00 0.0000e+00
       13  1    3    3    0    0 -3.4520027390e+00 +2.5734171719e+01 -1.3913628200e+03 1.3916050664e+03 0.0000000000e+00 0.0000e+00 -1.0000e+00
      -14  1    3    3    0    0 +3.4520027390e+00 -2.5734171719e+01 -1.8088203573e+02 1.8273607954e+02 0.0000000000e+00 0.0000e+00 1.0000e+00
#aMCatNLO 1  0  0  1  2 0.61818488E+01 0.00000000E+00 -9  5  0 0.00000000E+00 0.00000000E+00 0.00000000E+00 0.00000000E+00 0.00000000E+00
<rwgt>
<wgt id='1001'> +7.4519530e+04 </wgt>
<wgt id='1002'> +7.1500523e+04 </wgt>
<wgt id='1003'> +7.8279743e+04 </wgt>
<wgt id='1004'> +8.0156691e+04 </wgt>
<wgt id='1005'> +7.6921914e+04 </wgt>
<wgt id='1006'> +8.4185652e+04 </wgt>
<wgt id='1007'> +6.7786094e+04 </wgt>
<wgt id='1008'> +6.5038506e+04 </wgt>
<wgt id='1009'> +7.1208256e+04 </wgt>
<wgt id='1010'> +7.4519530e+04 </wgt>
<wgt id='1011'> +7.4803776e+04 </wgt>
<wgt id='1012'> +7.4756526e+04 </wgt>
<wgt id='1013'> +7.4118228e+04 </wgt>
<wgt id='1014'> +7.4330665e+04 </wgt>
<wgt id='1015'> +7.4519887e+04 </wgt>
<wgt id='1016'> +7.4115641e+04 </wgt>
<wgt id='1017'> +7.4201892e+04 </wgt>
<wgt id='1018'> +7.4134195e+04 </wgt>
<wgt id='1019'> +7.4568220e+04 </wgt>
<wgt id='1020'> +7.4719451e+04 </wgt>
<wgt id='1021'> +7.4591107e+04 </wgt>
<wgt id='1022'> +7.4488808e+04 </wgt>
<wgt id='1023'> +7.4542229e+04 </wgt>
<wgt id='1024'> +7.4133626e+04 </wgt>
<wgt id='1025'> +7.4441519e+04 </wgt>
<wgt id='1026'> +7.4360637e+04 </wgt>
<wgt id='1027'> +7.4355662e+04 </wgt>
<wgt id='1028'> +7.4629886e+04 </wgt>
<wgt id='1029'> +7.4630326e+04 </wgt>
<wgt id='1030'> +7.4503717e+04 </wgt>
<wgt id='1031'> +7.4691233e+04 </wgt>
<wgt id='1032'> +7.4651083e+04 </wgt>
<wgt id='1033'> +7.4110931e+04 </wgt>
<wgt id='1034'> +7.4857291e+04 </wgt>
<wgt id='1035'> +7.4405408e+04 </wgt>
<wgt id='1036'> +7.4568940e+04 </wgt>
<wgt id='1037'> +7.4438280e+04 </wgt>
<wgt id='1038'> +7.5031144e+04 </wgt>
<wgt id='1039'> +7.4961233e+04 </wgt>
<wgt id='1040'> +7.4170063e+04 </wgt>
<wgt id='1041'> +7.5173568e+04 </wgt>
<wgt id='1042'> +7.4762194e+04 </wgt>
<wgt id='1043'> +7.4559297e+04 </wgt>
<wgt id='1044'> +7.4713556e+04 </wgt>
<wgt id='1045'> +7.4673421e+04 </wgt>
<wgt id='1046'> +7.3770784e+04 </wgt>
<wgt id='1047'> +7.4898778e+04 </wgt>
<wgt id='1048'> +7.4197870e+04 </wgt>
<wgt id='1049'> +7.4526218e+04 </wgt>
<wgt id='1050'> +7.4565747e+04 </wgt>
<wgt id='1051'> +7.4670209e+04 </wgt>
<wgt id='1052'> +7.4217204e+04 </wgt>
<wgt id='1053'> +7.4467974e+04 </wgt>
<wgt id='1054'> +7.4398830e+04 </wgt>
<wgt id='1055'> +7.4525387e+04 </wgt>
<wgt id='1056'> +7.4628570e+04 </wgt>
<wgt id='1057'> +7.4704303e+04 </wgt>
<wgt id='1058'> +7.4575048e+04 </wgt>
<wgt id='1059'> +7.4732000e+04 </wgt>
<wgt id='1060'> +7.4369609e+04 </wgt>
<wgt id='1061'> +7.4390516e+04 </wgt>
<wgt id='1062'> +7.4392317e+04 </wgt>
<wgt id='1063'> +7.4697837e+04 </wgt>
<wgt id='1064'> +7.4457785e+04 </wgt>
<wgt id='1065'> +7.4491568e+04 </wgt>
<wgt id='1066'> +7.4192717e+04 </wgt>
<wgt id='1067'> +7.4382972e+04 </wgt>
<wgt id='1068'> +7.4690842e+04 </wgt>
<wgt id='1069'> +7.4576877e+04 </wgt>
<wgt id='1070'> +7.4382782e+04 </wgt>
<wgt id='1071'> +7.4672529e+04 </wgt>
<wgt id='1072'> +7.4672493e+04 </wgt>
<wgt id='1073'> +7.4417580e+04 </wgt>
<wgt id='1074'> +7.4546172e+04 </wgt>
<wgt id='1075'> +7.4433412e+04 </wgt>
<wgt id='1076'> +7.4518195e+04 </wgt>
<wgt id='1077'> +7.4498872e+04 </wgt>
<wgt id='1078'> +7.4601896e+04 </wgt>
<wgt id='1079'> +7.4512072e+04 </wgt>
<wgt id='1080'> +7.4349066e+04 </wgt>
<wgt id='1081'> +7.4609148e+04 </wgt>
<wgt id='1082'> +7.4580839e+04 </wgt>
<wgt id='1083'> +7.4695374e+04 </wgt>
<wgt id='1084'> +7.4792458e+04 </wgt>
<wgt id='1085'> +7.4341172e+04 </wgt>
<wgt id='1086'> +7.4585798e+04 </wgt>
<wgt id='1087'> +7.4549487e+04 </wgt>
<wgt id='1088'> +7.4604381e+04 </wgt>
<wgt id='1089'> +7.4511786e+04 </wgt>
<wgt id='1090'> +7.4496150e+04 </wgt>
<wgt id='1091'> +7.4490268e+04 </wgt>
<wgt id='1092'> +7.4537833e+04 </wgt>
<wgt id='1093'> +7.4477539e+04 </wgt>
<wgt id='1094'> +7.4439073e+04 </wgt>
<wgt id='1095'> +7.4525639e+04 </wgt>
<wgt id='1096'> +7.4642400e+04 </wgt>
<wgt id='1097'> +7.4510078e+04 </wgt>
<wgt id='1098'> +7.4598151e+04 </wgt>
<wgt id='1099'> +7.4389565e+04 </wgt>
<wgt id='1100'> +7.4502129e+04 </wgt>
<wgt id='1101'> +7.4419178e+04 </wgt>
<wgt id='1102'> +7.4466904e+04 </wgt>
<wgt id='1103'> +7.4525345e+04 </wgt>
<wgt id='1104'> +7.4552424e+04 </wgt>
<wgt id='1105'> +7.4423085e+04 </wgt>
<wgt id='1106'> +7.4548344e+04 </wgt>
<wgt id='1107'> +7.4581604e+04 </wgt>
<wgt id='1108'> +7.4558457e+04 </wgt>
<wgt id='1109'> +7.4523569e+04 </wgt>
<wgt id='1110'> +7.4519529e+04 </wgt>
<wgt id='1111'> +7.3541251e+04 </wgt>
<wgt id='1112'> +7.5185966e+04 </wgt>
<wgt id='1113'> +7.4519529e+04 </wgt>
<wgt id='1114'> +7.5414326e+04 </wgt>
<wgt id='1115'> +7.6544477e+04 </wgt>
<wgt id='1116'> +7.2918357e+04 </wgt>
<wgt id='1117'> +7.3905674e+04 </wgt>
<wgt id='1118'> +7.3694538e+04 </wgt>
<wgt id='1119'> +7.5294996e+04 </wgt>
<wgt id='1120'> +7.5712793e+04 </wgt>
<wgt id='1121'> +7.5617899e+04 </wgt>
<wgt id='1122'> +7.5513483e+04 </wgt>
<wgt id='1123'> +7.0425573e+04 </wgt>
<wgt id='1124'> +7.1175449e+04 </wgt>
<wgt id='1125'> +7.5614597e+04 </wgt>
<wgt id='1126'> +7.2227271e+04 </wgt>
<wgt id='1127'> +7.5979441e+04 </wgt>
<wgt id='1128'> +7.5751105e+04 </wgt>
<wgt id='1129'> +7.4693361e+04 </wgt>
<wgt id='1130'> +7.1848903e+04 </wgt>
<wgt id='1131'> +7.4970163e+04 </wgt>
<wgt id='1132'> +7.6787946e+04 </wgt>
<wgt id='1133'> +7.5019578e+04 </wgt>
<wgt id='1134'> +7.7106176e+04 </wgt>
<wgt id='1135'> +7.7034530e+04 </wgt>
<wgt id='1136'> +7.9154189e+04 </wgt>
<wgt id='1137'> +7.4060731e+04 </wgt>
<wgt id='1138'> +7.7332934e+04 </wgt>
<wgt id='1139'> +7.6644270e+04 </wgt>
<wgt id='1140'> +7.4593538e+04 </wgt>
<wgt id='1141'> +7.4812794e+04 </wgt>
<wgt id='1142'> +7.2764976e+04 </wgt>
<wgt id='1143'> +7.1853486e+04 </wgt>
<wgt id='1144'> +7.3966951e+04 </wgt>
<wgt id='1145'> +7.3638492e+04 </wgt>
<wgt id='1146'> +7.7187058e+04 </wgt>
<wgt id='1147'> +7.2499642e+04 </wgt>
<wgt id='1148'> +7.2914628e+04 </wgt>
<wgt id='1149'> +7.5614532e+04 </wgt>
<wgt id='1150'> +7.3868927e+04 </wgt>
<wgt id='1151'> +7.2219477e+04 </wgt>
<wgt id='1152'> +6.9644915e+04 </wgt>
<wgt id='1153'> +7.5422878e+04 </wgt>
<wgt id='1154'> +7.2254080e+04 </wgt>
<wgt id='1155'> +7.4156163e+04 </wgt>
<wgt id='1156'> +7.4040445e+04 </wgt>
<wgt id='1157'> +7.2486735e+04 </wgt>
<wgt id='1158'> +7.1355162e+04 </wgt>
<wgt id='1159'> +7.3896755e+04 </wgt>
<wgt id='1160'> +7.8155140e+04 </wgt>
<wgt id='1161'> +7.4701637e+04 </wgt>
<wgt id='1162'> +7.5547286e+04 </wgt>
<wgt id='1163'> +7.3110547e+04 </wgt>
<wgt id='1164'> +7.4250214e+04 </wgt>
<wgt id='1165'> +7.8125362e+04 </wgt>
<wgt id='1166'> +7.4946315e+04 </wgt>
<wgt id='1167'> +7.7764183e+04 </wgt>
<wgt id='1168'> +7.3412722e+04 </wgt>
<wgt id='1169'> +7.2837888e+04 </wgt>
<wgt id='1170'> +7.4865440e+04 </wgt>
<wgt id='1171'> +7.3947383e+04 </wgt>
<wgt id='1172'> +7.3842994e+04 </wgt>
<wgt id='1173'> +7.6675351e+04 </wgt>
<wgt id='1174'> +7.7432167e+04 </wgt>
<wgt id='1175'> +7.6617593e+04 </wgt>
<wgt id='1176'> +7.4637264e+04 </wgt>
<wgt id='1177'> +7.3905250e+04 </wgt>
<wgt id='1178'> +7.6993274e+04 </wgt>
<wgt id='1179'> +7.3807331e+04 </wgt>
<wgt id='1180'> +7.6267121e+04 </wgt>
<wgt id='1181'> +7.6562544e+04 </wgt>
<wgt id='1182'> +7.6306237e+04 </wgt>
<wgt id='1183'> +7.5822312e+04 </wgt>
<wgt id='1184'> +7.4314396e+04 </wgt>
<wgt id='1185'> +7.2648565e+04 </wgt>
<wgt id='1186'> +7.5170366e+04 </wgt>
<wgt id='1187'> +7.6183151e+04 </wgt>
<wgt id='1188'> +7.2850698e+04 </wgt>
<wgt id='1189'> +7.3318643e+04 </wgt>
<wgt id='1190'> +7.5305359e+04 </wgt>
<wgt id='1191'> +7.7084429e+04 </wgt>
<wgt id='1192'> +7.3771575e+04 </wgt>
<wgt id='1193'> +6.8155640e+04 </wgt>
<wgt id='1194'> +7.4799571e+04 </wgt>
<wgt id='1195'> +7.4693361e+04 </wgt>
<wgt id='1196'> +7.0769919e+04 </wgt>
<wgt id='1197'> +7.3813150e+04 </wgt>
<wgt id='1198'> +7.5674801e+04 </wgt>
<wgt id='1199'> +7.4712143e+04 </wgt>
<wgt id='1200'> +7.4860907e+04 </wgt>
<wgt id='1201'> +7.2661487e+04 </wgt>
<wgt id='1202'> +7.0413090e+04 </wgt>
<wgt id='1203'> +7.2303886e+04 </wgt>
<wgt id='1204'> +7.3265149e+04 </wgt>
<wgt id='1205'> +7.3246056e+04 </wgt>
<wgt id='1206'> +7.3693672e+04 </wgt>
<wgt id='1207'> +7.7790596e+04 </wgt>
<wgt id='1208'> +7.3931773e+04 </wgt>
<wgt id='1209'> +7.6646224e+04 </wgt>
<wgt id='1210'> +7.2134860e+04 </wgt>
<wgt id='1211'> +7.4676360e+04 </wgt>
<wgt id='1212'> +7.8494032e+04 </wgt>
<wgt id='1213'> +7.3454008e+04 </wgt>
<wgt id='1214'> +7.4519187e+04 </wgt>
<wgt id='1215'> +6.9726765e+04 </wgt>
<wgt id='1216'> +7.0236921e+04 </wgt>
<wgt id='1217'> +7.1454720e+04 </wgt>
<wgt id='1218'> +7.2851255e+04 </wgt>
<wgt id='1219'> +7.3929847e+04 </wgt>
<wgt id='1220'> +7.5038958e+04 </wgt>
<wgt id='1221'> +7.6378466e+04 </wgt>
<wgt id='1222'> +7.6849226e+04 </wgt>
<wgt id='1223'> +7.2647113e+04 </wgt>
<wgt id='1224'> +7.2112207e+04 </wgt>
<wgt id='1225'> +7.3231520e+04 </wgt>
<wgt id='1226'> +7.2339040e+04 </wgt>
<wgt id='1227'> +7.2711375e+04 </wgt>
<wgt id='1228'> +7.2497641e+04 </wgt>
<wgt id='1229'> +7.2715730e+04 </wgt>
<wgt id='1230'> +7.2731607e+04 </wgt>
<wgt id='1231'> +7.2527982e+04 </wgt>
<wgt id='1232'> +7.2721497e+04 </wgt>
<wgt id='1233'> +7.2831174e+04 </wgt>
<wgt id='1234'> +7.2581858e+04 </wgt>
<wgt id='1235'> +7.2580506e+04 </wgt>
<wgt id='1236'> +7.2704477e+04 </wgt>
<wgt id='1237'> +7.2610555e+04 </wgt>
<wgt id='1238'> +7.2525830e+04 </wgt>
<wgt id='1239'> +7.2623715e+04 </wgt>
<wgt id='1240'> +7.2533666e+04 </wgt>
<wgt id='1241'> +7.2727457e+04 </wgt>
<wgt id='1242'> +7.2625452e+04 </wgt>
<wgt id='1243'> +7.2569825e+04 </wgt>
<wgt id='1244'> +7.2722682e+04 </wgt>
<wgt id='1245'> +7.2690017e+04 </wgt>
<wgt id='1246'> +7.2672282e+04 </wgt>
<wgt id='1247'> +7.2833400e+04 </wgt>
<wgt id='1248'> +7.2473343e+04 </wgt>
<wgt id='1249'> +7.2581076e+04 </wgt>
<wgt id='1250'> +7.2524615e+04 </wgt>
<wgt id='1251'> +7.2905532e+04 </wgt>
<wgt id='1252'> +7.2914412e+04 </wgt>
<wgt id='1253'> +7.1581306e+04 </wgt>
<wgt id='1254'> +7.2388847e+04 </wgt>
<wgt id='1255'> +7.2867968e+04 </wgt>
<wgt id='1256'> +7.2769166e+04 </wgt>
<wgt id='1257'> +7.2436887e+04 </wgt>
<wgt id='1258'> +7.2872372e+04 </wgt>
<wgt id='1259'> +7.2596764e+04 </wgt>
<wgt id='1260'> +7.2546154e+04 </wgt>
<wgt id='1261'> +7.2477854e+04 </wgt>
<wgt id='1262'> +7.2683176e+04 </wgt>
<wgt id='1263'> +7.2377190e+04 </wgt>
<wgt id='1264'> +7.2873656e+04 </wgt>
<wgt id='1265'> +7.2624510e+04 </wgt>
<wgt id='1266'> +7.2657699e+04 </wgt>
<wgt id='1267'> +7.2753208e+04 </wgt>
<wgt id='1268'> +7.2850016e+04 </wgt>
<wgt id='1269'> +7.2541394e+04 </wgt>
<wgt id='1270'> +7.2576472e+04 </wgt>
<wgt id='1271'> +7.2946334e+04 </wgt>
<wgt id='1272'> +7.2498607e+04 </wgt>
<wgt id='1273'> +7.2586853e+04 </wgt>
<wgt id='1274'> +7.3023127e+04 </wgt>
<wgt id='1275'> +7.2620518e+04 </wgt>
<wgt id='1276'> +7.3174980e+04 </wgt>
<wgt id='1277'> +7.2976473e+04 </wgt>
<wgt id='1278'> +7.2613651e+04 </wgt>
<wgt id='1279'> +7.3069630e+04 </wgt>
<wgt id='1280'> +7.2507401e+04 </wgt>
<wgt id='1281'> +7.2616229e+04 </wgt>
<wgt id='1282'> +7.2308964e+04 </wgt>
<wgt id='1283'> +7.2759580e+04 </wgt>
<wgt id='1284'> +7.2692020e+04 </wgt>
<wgt id='1285'> +7.2975912e+04 </wgt>
<wgt id='1286'> +7.2520730e+04 </wgt>
<wgt id='1287'> +7.2711024e+04 </wgt>
<wgt id='1288'> +7.2639516e+04 </wgt>
<wgt id='1289'> +7.2800871e+04 </wgt>
<wgt id='1290'> +7.2813566e+04 </wgt>
<wgt id='1291'> +7.2660028e+04 </wgt>
<wgt id='1292'> +7.2652878e+04 </wgt>
<wgt id='1293'> +7.2885529e+04 </wgt>
<wgt id='1294'> +7.2783793e+04 </wgt>
<wgt id='1295'> +7.2686771e+04 </wgt>
<wgt id='1296'> +7.2787159e+04 </wgt>
<wgt id='1297'> +7.2590991e+04 </wgt>
<wgt id='1298'> +7.2407776e+04 </wgt>
<wgt id='1299'> +7.2596550e+04 </wgt>
<wgt id='1300'> +7.2746381e+04 </wgt>
<wgt id='1301'> +7.2713505e+04 </wgt>
<wgt id='1302'> +7.2720164e+04 </wgt>
<wgt id='1303'> +7.2663030e+04 </wgt>
<wgt id='1304'> +7.2656527e+04 </wgt>
<wgt id='1305'> +7.2501918e+04 </wgt>
<wgt id='1306'> +7.2509763e+04 </wgt>
<wgt id='1307'> +7.2629068e+04 </wgt>
<wgt id='1308'> +7.2438328e+04 </wgt>
<wgt id='1309'> +7.2733501e+04 </wgt>
<wgt id='1310'> +7.2564130e+04 </wgt>
<wgt id='1311'> +7.2599945e+04 </wgt>
<wgt id='1312'> +7.2601521e+04 </wgt>
<wgt id='1313'> +7.2582874e+04 </wgt>
<wgt id='1314'> +7.2827631e+04 </wgt>
<wgt id='1315'> +7.2501396e+04 </wgt>
<wgt id='1316'> +7.2657544e+04 </wgt>
<wgt id='1317'> +7.2645515e+04 </wgt>
<wgt id='1318'> +7.2636052e+04 </wgt>
<wgt id='1319'> +7.2553391e+04 </wgt>
<wgt id='1320'> +7.2550607e+04 </wgt>
<wgt id='1321'> +7.2747978e+04 </wgt>
<wgt id='1322'> +7.2685687e+04 </wgt>
<wgt id='1323'> +7.2749094e+04 </wgt>
<wgt id='1324'> +7.1732609e+04 </wgt>
<wgt id='1325'> +7.4011984e+04 </wgt>
<wgt id='1326'> +7.1812256e+04 </wgt>
<wgt id='1327'> +7.1555551e+04 </wgt>
<wgt id='1328'> +7.2637362e+04 </wgt>
<wgt id='1329'> +7.1997870e+04 </wgt>
<wgt id='1330'> +7.2927789e+04 </wgt>
<wgt id='1331'> +7.3396316e+04 </wgt>
<wgt id='1332'> +7.1669845e+04 </wgt>
<wgt id='1333'> +7.6436830e+04 </wgt>
<wgt id='1334'> +7.1655449e+04 </wgt>
<wgt id='1335'> +7.0936008e+04 </wgt>
<wgt id='1336'> +7.4143033e+04 </wgt>
<wgt id='1337'> +7.2452185e+04 </wgt>
<wgt id='1338'> +7.2318492e+04 </wgt>
<wgt id='1339'> +7.1301764e+04 </wgt>
<wgt id='1340'> +7.2308529e+04 </wgt>
<wgt id='1341'> +6.9877462e+04 </wgt>
<wgt id='1342'> +7.5423461e+04 </wgt>
<wgt id='1343'> +7.2691788e+04 </wgt>
<wgt id='1344'> +7.1643547e+04 </wgt>
<wgt id='1345'> +7.4654008e+04 </wgt>
<wgt id='1346'> +7.1844432e+04 </wgt>
<wgt id='1347'> +7.5496476e+04 </wgt>
<wgt id='1348'> +7.3372906e+04 </wgt>
<wgt id='1349'> +7.3210839e+04 </wgt>
<wgt id='1350'> +6.9220342e+04 </wgt>
<wgt id='1351'> +7.3679365e+04 </wgt>
<wgt id='1352'> +7.0124434e+04 </wgt>
<wgt id='1353'> +7.1815889e+04 </wgt>
<wgt id='1354'> +7.0556793e+04 </wgt>
<wgt id='1355'> +7.2289637e+04 </wgt>
<wgt id='1356'> +7.4842802e+04 </wgt>
<wgt id='1357'> +7.1715328e+04 </wgt>
<wgt id='1358'> +7.0315846e+04 </wgt>
<wgt id='1359'> +7.3371052e+04 </wgt>
<wgt id='1360'> +7.2865896e+04 </wgt>
<wgt id='1361'> +7.4465146e+04 </wgt>
<wgt id='1362'> +7.4683911e+04 </wgt>
<wgt id='1363'> +7.1998237e+04 </wgt>
<wgt id='1364'> +7.5046465e+04 </wgt>
<wgt id='1365'> +7.1608246e+04 </wgt>
<wgt id='1366'> +7.2986867e+04 </wgt>
<wgt id='1367'> +7.3643519e+04 </wgt>
<wgt id='1368'> +6.9558572e+04 </wgt>
<wgt id='1369'> +7.5690907e+04 </wgt>
<wgt id='1370'> +6.9971527e+04 </wgt>
<wgt id='1371'> +7.1533541e+04 </wgt>
<wgt id='1372'> +7.0230478e+04 </wgt>
<wgt id='1373'> +7.1805256e+04 </wgt>
<wgt id='1374'> +7.2920188e+04 </wgt>
<wgt id='1375'> +7.2742422e+04 </wgt>
<wgt id='1376'> +7.3994899e+04 </wgt>
<wgt id='1377'> +7.2010719e+04 </wgt>
<wgt id='1378'> +6.9948705e+04 </wgt>
<wgt id='1379'> +7.3163591e+04 </wgt>
<wgt id='1380'> +7.1080208e+04 </wgt>
<wgt id='1381'> +7.3641263e+04 </wgt>
<wgt id='1382'> +7.1982868e+04 </wgt>
<wgt id='1383'> +6.8836026e+04 </wgt>
<wgt id='1384'> +7.3822647e+04 </wgt>
<wgt id='1385'> +7.0069674e+04 </wgt>
<wgt id='1386'> +7.2809654e+04 </wgt>
<wgt id='1387'> +7.3761636e+04 </wgt>
<wgt id='1388'> +7.5857704e+04 </wgt>
<wgt id='1389'> +7.2109748e+04 </wgt>
<wgt id='1390'> +7.1120515e+04 </wgt>
<wgt id='1391'> +7.2605457e+04 </wgt>
<wgt id='1392'> +7.0947586e+04 </wgt>
<wgt id='1393'> +7.1973425e+04 </wgt>
<wgt id='1394'> +7.1608246e+04 </wgt>
<wgt id='1395'> +7.1474884e+04 </wgt>
<wgt id='1396'> +7.2394547e+04 </wgt>
<wgt id='1397'> +7.2547691e+04 </wgt>
<wgt id='1398'> +7.2235463e+04 </wgt>
<wgt id='1399'> +7.3300198e+04 </wgt>
<wgt id='1400'> +7.3012147e+04 </wgt>
<wgt id='1401'> +7.2103976e+04 </wgt>
<wgt id='1402'> +7.2483033e+04 </wgt>
<wgt id='1403'> +7.2017616e+04 </wgt>
<wgt id='1404'> +7.2677188e+04 </wgt>
<wgt id='1405'> +7.3443176e+04 </wgt>
<wgt id='1406'> +7.2209577e+04 </wgt>
<wgt id='1407'> +7.3122919e+04 </wgt>
<wgt id='1408'> +7.5882196e+04 </wgt>
<wgt id='1409'> +7.2477552e+04 </wgt>
<wgt id='1410'> +7.4485087e+04 </wgt>
<wgt id='1411'> +7.3725527e+04 </wgt>
<wgt id='1412'> +7.2481900e+04 </wgt>
<wgt id='1413'> +7.3460266e+04 </wgt>
<wgt id='1414'> +7.2051677e+04 </wgt>
<wgt id='1415'> +7.1624642e+04 </wgt>
<wgt id='1416'> +7.5204003e+04 </wgt>
<wgt id='1417'> +7.1941239e+04 </wgt>
<wgt id='1418'> +7.2698745e+04 </wgt>
<wgt id='1419'> +7.1700609e+04 </wgt>
<wgt id='1420'> +7.2927672e+04 </wgt>
<wgt id='1421'> +7.1965232e+04 </wgt>
<wgt id='1422'> +7.3065023e+04 </wgt>
<wgt id='1423'> +7.3364164e+04 </wgt>
<wgt id='1424'> +7.3244735e+04 </wgt>
<wgt id='1425'> +7.5316376e+04 </wgt>
<wgt id='1426'> +7.2291931e+04 </wgt>
<wgt id='1427'> +7.3721109e+04 </wgt>
<wgt id='1428'> +7.5986700e+04 </wgt>
<wgt id='1429'> +7.2625991e+04 </wgt>
<wgt id='1430'> +7.2565420e+04 </wgt>
<wgt id='1431'> +7.2517072e+04 </wgt>
<wgt id='1432'> +7.3005348e+04 </wgt>
<wgt id='1433'> +7.2446319e+04 </wgt>
<wgt id='1434'> +7.2336969e+04 </wgt>
<wgt id='1435'> +7.2381086e+04 </wgt>
<wgt id='1436'> +7.2177788e+04 </wgt>
<wgt id='1437'> +7.2721434e+04 </wgt>
<wgt id='1438'> +7.2616432e+04 </wgt>
<wgt id='1439'> +7.2479131e+04 </wgt>
<wgt id='1440'> +7.2598318e+04 </wgt>
<wgt id='1441'> +7.2725013e+04 </wgt>
<wgt id='1442'> +7.2218378e+04 </wgt>
<wgt id='1443'> +7.2511937e+04 </wgt>
<wgt id='1444'> +7.2188744e+04 </wgt>
<wgt id='1445'> +7.2058266e+04 </wgt>
<wgt id='1446'> +7.2815351e+04 </wgt>
<wgt id='1447'> +7.2524351e+04 </wgt>
<wgt id='1448'> +7.2748706e+04 </wgt>
<wgt id='1449'> +7.2337022e+04 </wgt>
<wgt id='1450'> +7.2163784e+04 </wgt>
<wgt id='1451'> +7.2729538e+04 </wgt>
<wgt id='1452'> +7.3203706e+04 </wgt>
<wgt id='1453'> +7.2496083e+04 </wgt>
<wgt id='1454'> +7.2516810e+04 </wgt>
<wgt id='1455'> +7.2901967e+04 </wgt>
<wgt id='1456'> +7.2482857e+04 </wgt>
<wgt id='1457'> +7.2317512e+04 </wgt>
<wgt id='1458'> +7.2188902e+04 </wgt>
<wgt id='1459'> +7.2502147e+04 </wgt>
<wgt id='1460'> +7.2831608e+04 </wgt>
<wgt id='1461'> +7.2632116e+04 </wgt>
<wgt id='1462'> +7.2843974e+04 </wgt>
<wgt id='1463'> +7.2637836e+04 </wgt>
<wgt id='1464'> +7.2471646e+04 </wgt>
<wgt id='1465'> +7.2250814e+04 </wgt>
<wgt id='1466'> +7.2672988e+04 </wgt>
<wgt id='1467'> +7.2628776e+04 </wgt>
<wgt id='1468'> +7.2490463e+04 </wgt>
<wgt id='1469'> +7.2558062e+04 </wgt>
<wgt id='1470'> +7.2552401e+04 </wgt>
<wgt id='1471'> +7.2720481e+04 </wgt>
<wgt id='1472'> +7.2519857e+04 </wgt>
<wgt id='1473'> +7.2601261e+04 </wgt>
<wgt id='1474'> +7.2408168e+04 </wgt>
<wgt id='1475'> +7.2468034e+04 </wgt>
<wgt id='1476'> +7.2504843e+04 </wgt>
<wgt id='1477'> +7.2518651e+04 </wgt>
<wgt id='1478'> +7.2503580e+04 </wgt>
<wgt id='1479'> +7.2468774e+04 </wgt>
<wgt id='1480'> +7.2569072e+04 </wgt>
<wgt id='1481'> +7.2531465e+04 </wgt>
<wgt id='1482'> +7.2625991e+04 </wgt>
<wgt id='1483'> +7.2565420e+04 </wgt>
<wgt id='1484'> +7.6186723e+04 </wgt>
<wgt id='1485'> +7.3712318e+04 </wgt>
<wgt id='1486'> +7.5794180e+04 </wgt>
<wgt id='1487'> +7.5045883e+04 </wgt>
<wgt id='1488'> +7.5910534e+04 </wgt>
<wgt id='1489'> +7.5341986e+04 </wgt>
<wgt id='1490'> +7.4382121e+04 </wgt>
<wgt id='1491'> +7.5308106e+04 </wgt>
<wgt id='1492'> +7.3076525e+04 </wgt>
<wgt id='1493'> +7.8245405e+04 </wgt>
<wgt id='1494'> +7.6344523e+04 </wgt>
<wgt id='1495'> +7.3328616e+04 </wgt>
<wgt id='1496'> +7.5297372e+04 </wgt>
<wgt id='1497'> +7.4743162e+04 </wgt>
<wgt id='1498'> +7.8074143e+04 </wgt>
<wgt id='1499'> +7.6132484e+04 </wgt>
<wgt id='1500'> +7.6369841e+04 </wgt>
<wgt id='1501'> +7.6660560e+04 </wgt>
<wgt id='1502'> +7.5921690e+04 </wgt>
<wgt id='1503'> +7.6596385e+04 </wgt>
<wgt id='1504'> +7.7718069e+04 </wgt>
<wgt id='1505'> +7.5775278e+04 </wgt>
<wgt id='1506'> +7.4650975e+04 </wgt>
<wgt id='1507'> +7.5372062e+04 </wgt>
<wgt id='1508'> +7.3332988e+04 </wgt>
<wgt id='1509'> +7.5954194e+04 </wgt>
<wgt id='1510'> +7.7240727e+04 </wgt>
<wgt id='1511'> +7.6828725e+04 </wgt>
<wgt id='1512'> +7.6590525e+04 </wgt>
<wgt id='1513'> +7.7851991e+04 </wgt>
<wgt id='1514'> +7.5192047e+04 </wgt>
<wgt id='1515'> +7.5400053e+04 </wgt>
<wgt id='1516'> +7.5919312e+04 </wgt>
<wgt id='1517'> +7.5085635e+04 </wgt>
<wgt id='1518'> +7.5321098e+04 </wgt>
<wgt id='1519'> +7.6527870e+04 </wgt>
<wgt id='1520'> +7.7001399e+04 </wgt>
<wgt id='1521'> +7.5400962e+04 </wgt>
<wgt id='1522'> +7.6744563e+04 </wgt>
<wgt id='1523'> +7.8790896e+04 </wgt>
<wgt id='1524'> +7.7222788e+04 </wgt>
<wgt id='1525'> +7.7520968e+04 </wgt>
<wgt id='1526'> +7.6582701e+04 </wgt>
<wgt id='1527'> +7.7710740e+04 </wgt>
<wgt id='1528'> +7.7316660e+04 </wgt>
<wgt id='1529'> +7.5776916e+04 </wgt>
<wgt id='1530'> +7.6878023e+04 </wgt>
<wgt id='1531'> +7.6171165e+04 </wgt>
<wgt id='1532'> +7.6347924e+04 </wgt>
<wgt id='1533'> +7.7842318e+04 </wgt>
<wgt id='1534'> +7.4556197e+04 </wgt>
<wgt id='1535'> +7.8757589e+04 </wgt>
<wgt id='1536'> +7.5641992e+04 </wgt>
<wgt id='1537'> +7.5589951e+04 </wgt>
<wgt id='1538'> +7.6932669e+04 </wgt>
<wgt id='1539'> +7.7205863e+04 </wgt>
<wgt id='1540'> +7.6149014e+04 </wgt>
<wgt id='1541'> +7.4578205e+04 </wgt>
<wgt id='1542'> +7.7225809e+04 </wgt>
<wgt id='1543'> +7.5844503e+04 </wgt>
<wgt id='1544'> +7.6876227e+04 </wgt>
<wgt id='1545'> +7.6983009e+04 </wgt>
<wgt id='1546'> +7.4857663e+04 </wgt>
<wgt id='1547'> +7.7359122e+04 </wgt>
<wgt id='1548'> +7.5118202e+04 </wgt>
<wgt id='1549'> +7.5492437e+04 </wgt>
<wgt id='1550'> +7.5059039e+04 </wgt>
<wgt id='1551'> +7.9344070e+04 </wgt>
<wgt id='1552'> +7.6716041e+04 </wgt>
<wgt id='1553'> +7.8318242e+04 </wgt>
<wgt id='1554'> +7.8400173e+04 </wgt>
<wgt id='1555'> +7.5449851e+04 </wgt>
<wgt id='1556'> +7.5382542e+04 </wgt>
<wgt id='1557'> +7.5696609e+04 </wgt>
<wgt id='1558'> +7.6588003e+04 </wgt>
<wgt id='1559'> +7.7352562e+04 </wgt>
<wgt id='1560'> +7.6355729e+04 </wgt>
<wgt id='1561'> +7.5793700e+04 </wgt>
<wgt id='1562'> +7.6557742e+04 </wgt>
<wgt id='1563'> +7.4346582e+04 </wgt>
<wgt id='1564'> +7.7687559e+04 </wgt>
<wgt id='1565'> +7.4065681e+04 </wgt>
<wgt id='1566'> +7.5877596e+04 </wgt>
<wgt id='1567'> +7.7470952e+04 </wgt>
<wgt id='1568'> +7.6110203e+04 </wgt>
<wgt id='1569'> +7.6264937e+04 </wgt>
<wgt id='1570'> +7.8636911e+04 </wgt>
<wgt id='1571'> +7.4549202e+04 </wgt>
<wgt id='1572'> +7.4902725e+04 </wgt>
<wgt id='1573'> +7.5694488e+04 </wgt>
<wgt id='1574'> +7.5864888e+04 </wgt>
<wgt id='1575'> +7.5282160e+04 </wgt>
<wgt id='1576'> +7.8901905e+04 </wgt>
<wgt id='1577'> +7.3859225e+04 </wgt>
<wgt id='1578'> +7.5823795e+04 </wgt>
<wgt id='1579'> +7.6625306e+04 </wgt>
<wgt id='1580'> +7.8440191e+04 </wgt>
<wgt id='1581'> +7.7424085e+04 </wgt>
<wgt id='1582'> +7.4952204e+04 </wgt>
<wgt id='1583'> +7.5701854e+04 </wgt>
<wgt id='1584'> +7.5322064e+04 </wgt>
<wgt id='1585'> +7.5449102e+04 </wgt>
<wgt id='1586'> +6.9018398e+04 </wgt>
<wgt id='1587'> +7.2492932e+04 </wgt>
<wgt id='1588'> +7.2625991e+04 </wgt>
<wgt id='1589'> +7.2479993e+04 </wgt>
<wgt id='1590'> +7.2328161e+04 </wgt>
<wgt id='1591'> +7.2565420e+04 </wgt>
<wgt id='1592'> +7.2720588e+04 </wgt>
<wgt id='1593'> +7.4495978e+04 </wgt>
<wgt id='1594'> +7.4373948e+04 </wgt>
<wgt id='1595'> +7.3286635e+04 </wgt>
<wgt id='1596'> +7.3892772e+04 </wgt>
<wgt id='1597'> +7.3801614e+04 </wgt>
<wgt id='1598'> +7.3675616e+04 </wgt>
<wgt id='1599'> +7.4731773e+04 </wgt>
<wgt id='1600'> +7.4307607e+04 </wgt>
<wgt id='1601'> +7.4554313e+04 </wgt>
<wgt id='1602'> +7.3553358e+04 </wgt>
<wgt id='1603'> +7.5247975e+04 </wgt>
<wgt id='1604'> +7.3829157e+04 </wgt>
<wgt id='1605'> +7.3296798e+04 </wgt>
<wgt id='1606'> +7.4542873e+04 </wgt>
<wgt id='1607'> +7.5464205e+04 </wgt>
<wgt id='1608'> +7.5265067e+04 </wgt>
<wgt id='1609'> +7.3520833e+04 </wgt>
<wgt id='1610'> +7.5141663e+04 </wgt>
<wgt id='1611'> +7.3675927e+04 </wgt>
<wgt id='1612'> +7.4695671e+04 </wgt>
<wgt id='1613'> +7.4395385e+04 </wgt>
<wgt id='1614'> +7.4348491e+04 </wgt>
<wgt id='1615'> +7.4657724e+04 </wgt>
<wgt id='1616'> +7.3807949e+04 </wgt>
<wgt id='1617'> +7.5307751e+04 </wgt>
<wgt id='1618'> +7.4575023e+04 </wgt>
<wgt id='1619'> +7.3969897e+04 </wgt>
<wgt id='1620'> +7.5178519e+04 </wgt>
<wgt id='1621'> +7.4132955e+04 </wgt>
<wgt id='1622'> +7.5670747e+04 </wgt>
<wgt id='1623'> +7.5372156e+04 </wgt>
<wgt id='1624'> +7.3945740e+04 </wgt>
<wgt id='1625'> +7.4445209e+04 </wgt>
<wgt id='1626'> +7.4680511e+04 </wgt>
<wgt id='1627'> +7.5181851e+04 </wgt>
<wgt id='1628'> +7.4741401e+04 </wgt>
<wgt id='1629'> +7.4747749e+04 </wgt>
<wgt id='1630'> +7.3313050e+04 </wgt>
<wgt id='1631'> +7.5049998e+04 </wgt>
<wgt id='1632'> +7.2755869e+04 </wgt>
<wgt id='1633'> +7.6243068e+04 </wgt>
<wgt id='1634'> +7.5108322e+04 </wgt>
<wgt id='1635'> +7.4453195e+04 </wgt>
<wgt id='1636'> +7.5566414e+04 </wgt>
<wgt id='1637'> +7.5184088e+04 </wgt>
<wgt id='1638'> +7.3970502e+04 </wgt>
<wgt id='1639'> +7.4582198e+04 </wgt>
<wgt id='1640'> +7.5042572e+04 </wgt>
<wgt id='1641'> +7.4753436e+04 </wgt>
<wgt id='1642'> +7.5992597e+04 </wgt>
<wgt id='1643'> +7.3897424e+04 </wgt>
<wgt id='1644'> +7.6136648e+04 </wgt>
<wgt id='1645'> +7.2767206e+04 </wgt>
<wgt id='1646'> +7.3435421e+04 </wgt>
<wgt id='1647'> +7.5973748e+04 </wgt>
<wgt id='1648'> +7.5031960e+04 </wgt>
<wgt id='1649'> +7.5468117e+04 </wgt>
<wgt id='1650'> +7.6353901e+04 </wgt>
<wgt id='1651'> +7.2772342e+04 </wgt>
<wgt id='1652'> +7.4709554e+04 </wgt>
<wgt id='1653'> +7.4608386e+04 </wgt>
<wgt id='1654'> +7.4376456e+04 </wgt>
<wgt id='1655'> +7.4254823e+04 </wgt>
<wgt id='1656'> +7.6665985e+04 </wgt>
<wgt id='1657'> +7.6006245e+04 </wgt>
<wgt id='1658'> +7.6978092e+04 </wgt>
<wgt id='1659'> +7.7376300e+04 </wgt>
<wgt id='1660'> +7.5370638e+04 </wgt>
<wgt id='1661'> +7.7523909e+04 </wgt>
<wgt id='1662'> +7.5548498e+04 </wgt>
<wgt id='1663'> +7.8699142e+04 </wgt>
<wgt id='1664'> +7.7397146e+04 </wgt>
<wgt id='1665'> +7.7141310e+04 </wgt>
<wgt id='1666'> +7.6501238e+04 </wgt>
<wgt id='1667'> +7.7783609e+04 </wgt>
<wgt id='1668'> +7.5561032e+04 </wgt>
<wgt id='1669'> +7.6563441e+04 </wgt>
<wgt id='1670'> +7.7001479e+04 </wgt>
<wgt id='1671'> +7.6361924e+04 </wgt>
<wgt id='1672'> +7.5304008e+04 </wgt>
<wgt id='1673'> +7.5605009e+04 </wgt>
<wgt id='1674'> +7.6647872e+04 </wgt>
<wgt id='1675'> +7.7878260e+04 </wgt>
<wgt id='1676'> +7.6128762e+04 </wgt>
<wgt id='1677'> +7.5116284e+04 </wgt>
<wgt id='1678'> +7.6307790e+04 </wgt>
<wgt id='1679'> +7.6610654e+04 </wgt>
<wgt id='1680'> +7.7545020e+04 </wgt>
<wgt id='1681'> +7.7519357e+04 </wgt>
<wgt id='1682'> +7.5707798e+04 </wgt>
<wgt id='1683'> +7.5898655e+04 </wgt>
<wgt id='1684'> +7.7407961e+04 </wgt>
<wgt id='1685'> +7.7747336e+04 </wgt>
<wgt id='1686'> +7.6958484e+04 </wgt>
<wgt id='1687'> +7.6649052e+04 </wgt>
<wgt id='1688'> +7.6374144e+04 </wgt>
<wgt id='1689'> +7.6313651e+04 </wgt>
<wgt id='1690'> +7.6949177e+04 </wgt>
<wgt id='1691'> +7.6543575e+04 </wgt>
<wgt id='1692'> +7.7098286e+04 </wgt>
<wgt id='1693'> +7.6494560e+04 </wgt>
<wgt id='1694'> +7.7123963e+04 </wgt>
<wgt id='1695'> +7.6322322e+04 </wgt>
<wgt id='1696'> +7.8355922e+04 </wgt>
<wgt id='1697'> +7.6973590e+04 </wgt>
<wgt id='1698'> +7.6663525e+04 </wgt>
<wgt id='1699'> +7.6282077e+04 </wgt>
<wgt id='1700'> +7.7187323e+04 </wgt>
<wgt id='1701'> +7.7098291e+04 </wgt>
<wgt id='1702'> +7.6577006e+04 </wgt>
<wgt id='1703'> +7.6803978e+04 </wgt>
<wgt id='1704'> +7.6108037e+04 </wgt>
<wgt id='1705'> +7.6026937e+04 </wgt>
<wgt id='1706'> +7.7761842e+04 </wgt>
<wgt id='1707'> +7.5849083e+04 </wgt>
<wgt id='1708'> +7.6812401e+04 </wgt>
<wgt id='1709'> +7.5916606e+04 </wgt>
<wgt id='1710'> +7.8079628e+04 </wgt>
<wgt id='1711'> +7.5670096e+04 </wgt>
<wgt id='1712'> +7.8013050e+04 </wgt>
<wgt id='1713'> +7.8619771e+04 </wgt>
<wgt id='1714'> +7.4760659e+04 </wgt>
<wgt id='1715'> +7.4275747e+04 </wgt>
<wgt id='1716'> +7.5557214e+04 </wgt>
<wgt id='1717'> +7.4870352e+04 </wgt>
<wgt id='1718'> +7.5037816e+04 </wgt>
<wgt id='1719'> +7.4655628e+04 </wgt>
<wgt id='1720'> +7.4929364e+04 </wgt>
<wgt id='1721'> +7.4816441e+04 </wgt>
<wgt id='1722'> +7.4863284e+04 </wgt>
<wgt id='1723'> +7.4881929e+04 </wgt>
<wgt id='1724'> +7.5076813e+04 </wgt>
<wgt id='1725'> +7.4702352e+04 </wgt>
<wgt id='1726'> +7.4754109e+04 </wgt>
<wgt id='1727'> +7.4990294e+04 </wgt>
<wgt id='1728'> +7.4485278e+04 </wgt>
<wgt id='1729'> +7.5245245e+04 </wgt>
<wgt id='1730'> +7.4347339e+04 </wgt>
<wgt id='1731'> +7.5242471e+04 </wgt>
<wgt id='1732'> +7.5052030e+04 </wgt>
<wgt id='1733'> +7.5052030e+04 </wgt>
<wgt id='1734'> +7.4228377e+04 </wgt>
<wgt id='1735'> +7.5303681e+04 </wgt>
<wgt id='1736'> +7.4673640e+04 </wgt>
<wgt id='1737'> +7.5138485e+04 </wgt>
<wgt id='1738'> +7.5331215e+04 </wgt>
<wgt id='1739'> +7.4081138e+04 </wgt>
<wgt id='1740'> +7.5180600e+04 </wgt>
<wgt id='1741'> +7.4121778e+04 </wgt>
<wgt id='1742'> +7.4975601e+04 </wgt>
<wgt id='1743'> +7.4746866e+04 </wgt>
<wgt id='1744'> +7.4849975e+04 </wgt>
<wgt id='1745'> +7.4923826e+04 </wgt>
<wgt id='1746'> +7.4247576e+04 </wgt>
<wgt id='1747'> +7.5201889e+04 </wgt>
<wgt id='1748'> +7.5371783e+04 </wgt>
<wgt id='1749'> +7.3273877e+04 </wgt>
<wgt id='1750'> +7.5070395e+04 </wgt>
<wgt id='1751'> +7.4656561e+04 </wgt>
<wgt id='1752'> +7.4731114e+04 </wgt>
<wgt id='1753'> +7.5061657e+04 </wgt>
<wgt id='1754'> +7.5012050e+04 </wgt>
<wgt id='1755'> +7.4793425e+04 </wgt>
<wgt id='1756'> +7.4759774e+04 </wgt>
<wgt id='1757'> +7.5124486e+04 </wgt>
<wgt id='1758'> +7.4448095e+04 </wgt>
<wgt id='1759'> +7.4960791e+04 </wgt>
<wgt id='1760'> +7.5324307e+04 </wgt>
<wgt id='1761'> +7.4338700e+04 </wgt>
<wgt id='1762'> +7.4622097e+04 </wgt>
<wgt id='1763'> +7.5818851e+04 </wgt>
<wgt id='1764'> +7.4733391e+04 </wgt>
<wgt id='1765'> +7.5463753e+04 </wgt>
<wgt id='1766'> +7.4569280e+04 </wgt>
<wgt id='1767'> +7.5214061e+04 </wgt>
<wgt id='1768'> +7.4838544e+04 </wgt>
<wgt id='1769'> +7.4929799e+04 </wgt>
<wgt id='1770'> +7.4781420e+04 </wgt>
<wgt id='1771'> +7.5126173e+04 </wgt>
<wgt id='1772'> +7.4904063e+04 </wgt>
<wgt id='1773'> +7.4768234e+04 </wgt>
<wgt id='1774'> +7.3984389e+04 </wgt>
<wgt id='1775'> +7.5378702e+04 </wgt>
<wgt id='1776'> +7.5193205e+04 </wgt>
<wgt id='1777'> +7.4662851e+04 </wgt>
<wgt id='1778'> +7.4729433e+04 </wgt>
<wgt id='1779'> +7.5215188e+04 </wgt>
<wgt id='1780'> +7.5212485e+04 </wgt>
<wgt id='1781'> +7.4996615e+04 </wgt>
<wgt id='1782'> +7.4870352e+04 </wgt>
<wgt id='1783'> +7.4857704e+04 </wgt>
<wgt id='1784'> +7.3927205e+04 </wgt>
<wgt id='1785'> +7.2999206e+04 </wgt>
<wgt id='1786'> +7.3837377e+04 </wgt>
<wgt id='1787'> +7.3698077e+04 </wgt>
<wgt id='1788'> +7.3367657e+04 </wgt>
<wgt id='1789'> +7.3908195e+04 </wgt>
<wgt id='1790'> +7.3296771e+04 </wgt>
<wgt id='1791'> +7.3830677e+04 </wgt>
<wgt id='1792'> +7.4090596e+04 </wgt>
<wgt id='1793'> +7.3959874e+04 </wgt>
<wgt id='1794'> +7.4225259e+04 </wgt>
<wgt id='1795'> +7.3570231e+04 </wgt>
<wgt id='1796'> +7.4077596e+04 </wgt>
<wgt id='1797'> +7.4011919e+04 </wgt>
<wgt id='1798'> +7.3729020e+04 </wgt>
<wgt id='1799'> +7.4528427e+04 </wgt>
<wgt id='1800'> +7.4202899e+04 </wgt>
<wgt id='1801'> +7.4301996e+04 </wgt>
<wgt id='1802'> +7.3909451e+04 </wgt>
<wgt id='1803'> +7.3804331e+04 </wgt>
<wgt id='1804'> +7.3071249e+04 </wgt>
<wgt id='1805'> +7.3577195e+04 </wgt>
<wgt id='1806'> +7.3468428e+04 </wgt>
<wgt id='1807'> +7.3792755e+04 </wgt>
<wgt id='1808'> +7.4180845e+04 </wgt>
<wgt id='1809'> +7.3582428e+04 </wgt>
<wgt id='1810'> +7.4101701e+04 </wgt>
<wgt id='1811'> +7.2434418e+04 </wgt>
<wgt id='1812'> +7.3852549e+04 </wgt>
<wgt id='1813'> +7.3947022e+04 </wgt>
<wgt id='1814'> +7.3828570e+04 </wgt>
<wgt id='1815'> +7.3883660e+04 </wgt>
<wgt id='1816'> +7.3819766e+04 </wgt>
<wgt id='1817'> +7.3775487e+04 </wgt>
<wgt id='1818'> +7.3736588e+04 </wgt>
<wgt id='1819'> +7.4262463e+04 </wgt>
<wgt id='1820'> +7.3875081e+04 </wgt>
<wgt id='1821'> +7.3936839e+04 </wgt>
<wgt id='1822'> +7.3935969e+04 </wgt>
<wgt id='1823'> +7.3848306e+04 </wgt>
<wgt id='1824'> +7.3728112e+04 </wgt>
<wgt id='1825'> +7.3932890e+04 </wgt>
<wgt id='1826'> +7.4537483e+04 </wgt>
<wgt id='1827'> +8.3795959e+04 </wgt>
<wgt id='1828'> +8.3927081e+04 </wgt>
<wgt id='1829'> +8.3723161e+04 </wgt>
<wgt id='1830'> +8.4063406e+04 </wgt>
<wgt id='1831'> +8.3585518e+04 </wgt>
<wgt id='1832'> +8.3872511e+04 </wgt>
<wgt id='1833'> +8.3777245e+04 </wgt>
<wgt id='1834'> +8.3481149e+04 </wgt>
<wgt id='1835'> +8.4150071e+04 </wgt>
<wgt id='1836'> +8.3440115e+04 </wgt>
<wgt id='1837'> +8.4183683e+04 </wgt>
<wgt id='1838'> +8.1722922e+04 </wgt>
<wgt id='1839'> +8.5920504e+04 </wgt>
<wgt id='1840'> +8.4347743e+04 </wgt>
<wgt id='1841'> +8.3318543e+04 </wgt>
<wgt id='1842'> +8.3963572e+04 </wgt>
<wgt id='1843'> +8.4234297e+04 </wgt>
<wgt id='1844'> +8.4311348e+04 </wgt>
<wgt id='1845'> +8.3311403e+04 </wgt>
<wgt id='1846'> +8.3164437e+04 </wgt>
<wgt id='1847'> +8.4370570e+04 </wgt>
<wgt id='1848'> +8.3539922e+04 </wgt>
<wgt id='1849'> +8.3994747e+04 </wgt>
<wgt id='1850'> +8.4783668e+04 </wgt>
<wgt id='1851'> +8.2908967e+04 </wgt>
<wgt id='1852'> +8.3536474e+04 </wgt>
<wgt id='1853'> +8.4219358e+04 </wgt>
<wgt id='1854'> +8.2685138e+04 </wgt>
<wgt id='1855'> +8.5138246e+04 </wgt>
<wgt id='1856'> +7.3758311e+04 </wgt>
<wgt id='1857'> +7.3747860e+04 </wgt>
<wgt id='1858'> +7.3673220e+04 </wgt>
<wgt id='1859'> +7.3749048e+04 </wgt>
<wgt id='1860'> +7.3755597e+04 </wgt>
<wgt id='1861'> +7.3644818e+04 </wgt>
<wgt id='1862'> +7.3560689e+04 </wgt>
<wgt id='1863'> +7.3670257e+04 </wgt>
<wgt id='1864'> +7.3776906e+04 </wgt>
<wgt id='1865'> +7.3292518e+04 </wgt>
<wgt id='1866'> +7.3916397e+04 </wgt>
<wgt id='1867'> +7.3807653e+04 </wgt>
<wgt id='1868'> +7.4067426e+04 </wgt>
<wgt id='1869'> +7.3848588e+04 </wgt>
<wgt id='1870'> +7.3436877e+04 </wgt>
<wgt id='1871'> +7.3869099e+04 </wgt>
<wgt id='1872'> +7.3515576e+04 </wgt>
<wgt id='1873'> +7.3677792e+04 </wgt>
<wgt id='1874'> +7.3464144e+04 </wgt>
<wgt id='1875'> +7.3855993e+04 </wgt>
<wgt id='1876'> +7.3726183e+04 </wgt>
<wgt id='1877'> +7.3456016e+04 </wgt>
<wgt id='1878'> +7.3741100e+04 </wgt>
<wgt id='1879'> +7.3962315e+04 </wgt>
<wgt id='1880'> +7.4076661e+04 </wgt>
<wgt id='1881'> +7.3745463e+04 </wgt>
<wgt id='1882'> +7.3980869e+04 </wgt>
<wgt id='1883'> +7.3983739e+04 </wgt>
<wgt id='1884'> +7.2745633e+04 </wgt>
<wgt id='1885'> +7.2949071e+04 </wgt>
<wgt id='1886'> +7.4179040e+04 </wgt>
<wgt id='1887'> +8.1549931e+04 </wgt>
<wgt id='1888'> +7.4072367e+04 </wgt>
<wgt id='1889'> +8.8062994e+04 </wgt>
</rwgt>
</event>
<event npLO=" -1 " npNLO=" 0 ">
 5      1 +7.4519530e+04 2.39438330e+01 7.55820760e-03 1.19519550e-01
        1 -1    0    0  501    0 +0.0000000000e+00 +0.0000000000e+00 +6.1699615320e+02 6.1699615320e+02 0.0000000000e+00 0.0000e+00 -1.0000e+00
       -2 -1    0    0    0  501 +0.0000000000e+00 +0.0000000000e+00 -2.8316561060e+00 2.8316561060e+00 0.0000000000e+00 0.0000e+00 1.0000e+00
      -24  2    1    2    0    0 +0.0000000000e+00 +0.0000000000e+00 +6.1416449710e+02 6.1982780931e+02 8.3597151257e+01 0.0000e+00 0.0000e+00
       11  1    3    3    0    0 -3.7869645398e+01 +1.4424701377e+01 +3.8303574575e+02 3.8517342143e+02 0.0000000000e+00 0.0000e+00 -1.0000e+00
      -12  1    3    3    0    0 +3.7869645398e+01 -1.4424701377e+01 +2.3112875135e+02 2.3465438788e+02 0.0000000000e+00 0.0000e+00 1.0000e+00
#aMCatNLO 1  0  0  1  2 0.65263613E+01 0.00000000E+00 -9  5  0 0.00000000E+00 0.00000000E+00 0.00000000E+00 0.00000000E+00 0.00000000E+00
<rwgt>
<wgt id='1001'> +7.4519530e+04 </wgt>
<wgt id='1002'> +7.2319532e+04 </wgt>
<wgt id='1003'> +7.7253707e+04 </wgt>
<wgt id='1004'> +9.8341557e+04 </wgt>
<wgt id='1005'> +9.4355902e+04 </wgt>
<wgt id='1006'> +1.0329729e+05 </wgt>
<wgt id='1007'> +5.3903092e+04 </wgt>
<wgt id='1008'> +5.3131461e+04 </wgt>
<wgt id='1009'> +5.4860250e+04 </wgt>
<wgt id='1010'> +7.4519530e+04 </wgt>
<wgt id='1011'> +7.4464761e+04 </wgt>
<wgt id='1012'> +7.4472036e+04 </wgt>
<wgt id='1013'> +7.4189279e+04 </wgt>
<wgt id='1014'> +7.4485334e+04 </wgt>
<wgt id='1015'> +7.4310988e+04 </wgt>
<wgt id='1016'> +7.4385380e+04 </wgt>
<wgt id='1017'> +7.4384026e+04 </wgt>
<wgt id='1018'> +7.4146415e+04 </wgt>
<wgt id='1019'> +7.4571806e+04 </wgt>
<wgt id='1020'> +7.4327205e+04 </wgt>
<wgt id='1021'> +7.4570117e+04 </wgt>
<wgt id='1022'> +7.4614226e+04 </wgt>
<wgt id='1023'> +7.4664611e+04 </wgt>
<wgt id='1024'> +7.4578603e+04 </wgt>
<wgt id='1025'> +7.4917131e+04 </wgt>
<wgt id='1026'> +7.4486453e+04 </wgt>
<wgt id='1027'> +7.4583212e+04 </wgt>
<wgt id='1028'> +7.4493744e+04 </wgt>
<wgt id='1029'> +7.4647707e+04 </wgt>
<wgt id='1030'> +7.4622140e+04 </wgt>
<wgt id='1031'> +7.4587899e+04 </wgt>
<wgt id='1032'> +7.4578816e+04 </wgt>
<wgt id='1033'> +7.4494955e+04 </wgt>
<wgt id='1034'> +7.4710748e+04 </wgt>
<wgt id='1035'> +7.4251736e+04 </wgt>
<wgt id='1036'> +7.4272797e+04 </wgt>
<wgt id='1037'> +7.4881908e+04 </wgt>
<wgt id='1038'> +7.4524474e+04 </wgt>
<wgt id='1039'> +7.5160813e+04 </wgt>
<wgt id='1040'> +7.4350236e+04 </wgt>
<wgt id='1041'> +7.5243458e+04 </wgt>
<wgt id='1042'> +7.4563827e+04 </wgt>
<wgt id='1043'> +7.4815929e+04 </wgt>
<wgt id='1044'> +7.4704254e+04 </wgt>
<wgt id='1045'> +7.4211554e+04 </wgt>
<wgt id='1046'> +7.4242998e+04 </wgt>
<wgt id='1047'> +7.4487411e+04 </wgt>
<wgt id='1048'> +7.4491093e+04 </wgt>
<wgt id='1049'> +7.4541375e+04 </wgt>
<wgt id='1050'> +7.4581326e+04 </wgt>
<wgt id='1051'> +7.4735586e+04 </wgt>
<wgt id='1052'> +7.4601800e+04 </wgt>
<wgt id='1053'> +7.4413293e+04 </wgt>
<wgt id='1054'> +7.4229455e+04 </wgt>
<wgt id='1055'> +7.4422330e+04 </wgt>
<wgt id='1056'> +7.4699639e+04 </wgt>
<wgt id='1057'> +7.4252936e+04 </wgt>
<wgt id='1058'> +7.4323061e+04 </wgt>
<wgt id='1059'> +7.4642756e+04 </wgt>
<wgt id='1060'> +7.4514788e+04 </wgt>
<wgt id='1061'> +7.4374061e+04 </wgt>
<wgt id='1062'> +7.4691509e+04 </wgt>
<wgt id='1063'> +7.4723902e+04 </wgt>
<wgt id='1064'> +7.4750054e+04 </wgt>
<wgt id='1065'> +7.4722272e+04 </wgt>
<wgt id='1066'> +7.4461619e+04 </wgt>
<wgt id='1067'> +7.4615074e+04 </wgt>
<wgt id='1068'> +7.4589622e+04 </wgt>
<wgt id='1069'> +7.4537572e+04 </wgt>
<wgt id='1070'> +7.4737710e+04 </wgt>
<wgt id='1071'> +7.4713466e+04 </wgt>
<wgt id='1072'> +7.4621878e+04 </wgt>
<wgt id='1073'> +7.4370819e+04 </wgt>
<wgt id='1074'> +7.4459005e+04 </wgt>
<wgt id='1075'> +7.4777935e+04 </wgt>
<wgt id='1076'> +7.4605207e+04 </wgt>
<wgt id='1077'> +7.4673892e+04 </wgt>
<wgt id='1078'> +7.4429252e+04 </wgt>
<wgt id='1079'> +7.4523457e+04 </wgt>
<wgt id='1080'> +7.4702650e+04 </wgt>
<wgt id='1081'> +7.4588938e+04 </wgt>
<wgt id='1082'> +7.4499430e+04 </wgt>
<wgt id='1083'> +7.4470911e+04 </wgt>
<wgt id='1084'> +7.4370875e+04 </wgt>
<wgt id='1085'> +7.4539765e+04 </wgt>
<wgt id='1086'> +7.4525446e+04 </wgt>
<wgt id='1087'> +7.4549337e+04 </wgt>
<wgt id='1088'> +7.4463502e+04 </wgt>
<wgt id='1089'> +7.4514427e+04 </wgt>
<wgt id='1090'> +7.4474053e+04 </wgt>
<wgt id='1091'> +7.4552064e+04 </wgt>
<wgt id='1092'> +7.4575762e+04 </wgt>
<wgt id='1093'> +7.4652581e+04 </wgt>
<wgt id='1094'> +7.4481049e+04 </wgt>
<wgt id='1095'> +7.4477859e+04 </wgt>
<wgt id='1096'> +7.4526077e+04 </wgt>
<wgt id='1097'> +7.4569185e+04 </wgt>
<wgt id='1098'> +7.4638879e+04 </wgt>
<wgt id='1099'> +7.4595421e+04 </wgt>
<wgt id='1100'> +7.4562732e+04 </wgt>
<wgt id='1101'> +7.4489042e+04 </wgt>
<wgt id='1102'> +7.4487699e+04 </wgt>
<wgt id='1103'> +7.4516002e+04 </wgt>
<wgt id='1104'> +7.4482195e+04 </wgt>
<wgt id='1105'> +7.4535445e+04 </wgt>
<wgt id='1106'> +7.4474312e+04 </wgt>
<wgt id='1107'> +7.4513035e+04 </wgt>
<wgt id='1108'> +7.4551825e+04 </wgt>
<wgt id='1109'> +7.4594014e+04 </wgt>
<wgt id='1110'> +7.4519545e+04 </wgt>
<wgt id='1111'> +7.3557867e+04 </wgt>
<wgt id='1112'> +7.5701814e+04 </wgt>
<wgt id='1113'> +7.4519545e+04 </wgt>
<wgt id='1114'> +7.6516384e+04 </wgt>
<wgt id='1115'> +7.6360262e+04 </wgt>
<wgt id='1116'> +7.2274566e+04 </wgt>
<wgt id='1117'> +7.4413628e+04 </wgt>
<wgt id='1118'> +7.4587485e+04 </wgt>
<wgt id='1119'> +7.4119775e+04 </wgt>
<wgt id='1120'> +7.7142798e+04 </wgt>
<wgt id='1121'> +7.5110634e+04 </wgt>
<wgt id='1122'> +7.4558983e+04 </wgt>
<wgt id='1123'> +7.0459941e+04 </wgt>
<wgt id='1124'> +7.3282528e+04 </wgt>
<wgt id='1125'> +7.3399842e+04 </wgt>
<wgt id='1126'> +7.3420182e+04 </wgt>
<wgt id='1127'> +7.4158647e+04 </wgt>
<wgt id='1128'> +7.5238923e+04 </wgt>
<wgt id='1129'> +7.3207895e+04 </wgt>
<wgt id='1130'> +7.5396300e+04 </wgt>
<wgt id='1131'> +7.4813197e+04 </wgt>
<wgt id='1132'> +7.5922522e+04 </wgt>
<wgt id='1133'> +7.4052240e+04 </wgt>
<wgt id='1134'> +7.4709294e+04 </wgt>
<wgt id='1135'> +7.6259466e+04 </wgt>
<wgt id='1136'> +7.6615450e+04 </wgt>
<wgt id='1137'> +7.3183799e+04 </wgt>
<wgt id='1138'> +7.4928539e+04 </wgt>
<wgt id='1139'> +7.4548112e+04 </wgt>
<wgt id='1140'> +7.6167306e+04 </wgt>
<wgt id='1141'> +7.5851288e+04 </wgt>
<wgt id='1142'> +7.3972934e+04 </wgt>
<wgt id='1143'> +7.7723883e+04 </wgt>
<wgt id='1144'> +7.6519383e+04 </wgt>
<wgt id='1145'> +7.4944622e+04 </wgt>
<wgt id='1146'> +7.5761609e+04 </wgt>
<wgt id='1147'> +7.3458876e+04 </wgt>
<wgt id='1148'> +7.2140022e+04 </wgt>
<wgt id='1149'> +7.2565406e+04 </wgt>
<wgt id='1150'> +7.2906170e+04 </wgt>
<wgt id='1151'> +7.3531489e+04 </wgt>
<wgt id='1152'> +7.4400969e+04 </wgt>
<wgt id='1153'> +7.3204521e+04 </wgt>
<wgt id='1154'> +7.6149251e+04 </wgt>
<wgt id='1155'> +7.5714258e+04 </wgt>
<wgt id='1156'> +7.5821646e+04 </wgt>
<wgt id='1157'> +7.5816397e+04 </wgt>
<wgt id='1158'> +7.4425983e+04 </wgt>
<wgt id='1159'> +7.2775006e+04 </wgt>
<wgt id='1160'> +7.5030236e+04 </wgt>
<wgt id='1161'> +7.6606128e+04 </wgt>
<wgt id='1162'> +7.6967300e+04 </wgt>
<wgt id='1163'> +7.3399911e+04 </wgt>
<wgt id='1164'> +7.4920114e+04 </wgt>
<wgt id='1165'> +7.5610483e+04 </wgt>
<wgt id='1166'> +7.5942492e+04 </wgt>
<wgt id='1167'> +7.5512483e+04 </wgt>
<wgt id='1168'> +7.3786889e+04 </wgt>
<wgt id='1169'> +7.4680458e+04 </wgt>
<wgt id='1170'> +7.4837259e+04 </wgt>
<wgt id='1171'> +7.5553621e+04 </wgt>
<wgt id='1172'> +7.5915500e+04 </wgt>
<wgt id='1173'> +7.5233862e+04 </wgt>
<wgt id='1174'> +7.4030308e+04 </wgt>
<wgt id='1175'> +7.3896152e+04 </wgt>
<wgt id='1176'> +7.4092355e+04 </wgt>
<wgt id='1177'> +7.3860161e+04 </wgt>
<wgt id='1178'> +7.4399529e+04 </wgt>
<wgt id='1179'> +7.4136369e+04 </wgt>
<wgt id='1180'> +7.3758506e+04 </wgt>
<wgt id='1181'> +7.5264145e+04 </wgt>
<wgt id='1182'> +7.4754558e+04 </wgt>
<wgt id='1183'> +7.5215499e+04 </wgt>
<wgt id='1184'> +7.6684449e+04 </wgt>
<wgt id='1185'> +7.5763873e+04 </wgt>
<wgt id='1186'> +7.1679009e+04 </wgt>
<wgt id='1187'> +7.2564989e+04 </wgt>
<wgt id='1188'> +7.3145013e+04 </wgt>
<wgt id='1189'> +7.5148432e+04 </wgt>
<wgt id='1190'> +7.3044525e+04 </wgt>
<wgt id='1191'> +7.6849691e+04 </wgt>
<wgt id='1192'> +7.3040404e+04 </wgt>
<wgt id='1193'> +7.1929407e+04 </wgt>
<wgt id='1194'> +7.5392070e+04 </wgt>
<wgt id='1195'> +7.3207895e+04 </wgt>
<wgt id='1196'> +7.0163515e+04 </wgt>
<wgt id='1197'> +7.4298018e+04 </wgt>
<wgt id='1198'> +7.4823285e+04 </wgt>
<wgt id='1199'> +7.7799526e+04 </wgt>
<wgt id='1200'> +7.3560448e+04 </wgt>
<wgt id='1201'> +7.5038170e+04 </wgt>
<wgt id='1202'> +6.5591769e+04 </wgt>
<wgt id='1203'> +7.3570188e+04 </wgt>
<wgt id='1204'> +7.5899741e+04 </wgt>
<wgt id='1205'> +7.3588723e+04 </wgt>
<wgt id='1206'> +7.4674209e+04 </wgt>
<wgt id='1207'> +7.6026243e+04 </wgt>
<wgt id='1208'> +7.4641333e+04 </wgt>
<wgt id='1209'> +7.7649166e+04 </wgt>
<wgt id='1210'> +7.3241048e+04 </wgt>
<wgt id='1211'> +7.3891525e+04 </wgt>
<wgt id='1212'> +7.2410210e+04 </wgt>
<wgt id='1213'> +7.6366401e+04 </wgt>
<wgt id='1214'> +7.4589266e+04 </wgt>
<wgt id='1215'> +7.0128298e+04 </wgt>
<wgt id='1216'> +7.0994423e+04 </wgt>
<wgt id='1217'> +7.1606130e+04 </wgt>
<wgt id='1218'> +7.2992949e+04 </wgt>
<wgt id='1219'> +7.4580989e+04 </wgt>
<wgt id='1220'> +7.5229498e+04 </wgt>
<wgt id='1221'> +7.6556399e+04 </wgt>
<wgt id='1222'> +7.7204771e+04 </wgt>
<wgt id='1223'> +7.3710015e+04 </wgt>
<wgt id='1224'> +7.3456774e+04 </wgt>
<wgt id='1225'> +7.4043891e+04 </wgt>
<wgt id='1226'> +7.3476086e+04 </wgt>
<wgt id='1227'> +7.4084936e+04 </wgt>
<wgt id='1228'> +7.3585927e+04 </wgt>
<wgt id='1229'> +7.3430231e+04 </wgt>
<wgt id='1230'> +7.3719897e+04 </wgt>
<wgt id='1231'> +7.3741730e+04 </wgt>
<wgt id='1232'> +7.3946842e+04 </wgt>
<wgt id='1233'> +7.3476934e+04 </wgt>
<wgt id='1234'> +7.3502225e+04 </wgt>
<wgt id='1235'> +7.3813694e+04 </wgt>
<wgt id='1236'> +7.3897011e+04 </wgt>
<wgt id='1237'> +7.3832372e+04 </wgt>
<wgt id='1238'> +7.3559786e+04 </wgt>
<wgt id='1239'> +7.3711039e+04 </wgt>
<wgt id='1240'> +7.3750625e+04 </wgt>
<wgt id='1241'> +7.3895169e+04 </wgt>
<wgt id='1242'> +7.3772493e+04 </wgt>
<wgt id='1243'> +7.3628705e+04 </wgt>
<wgt id='1244'> +7.3890335e+04 </wgt>
<wgt id='1245'> +7.3755469e+04 </wgt>
<wgt id='1246'> +7.3763999e+04 </wgt>
<wgt id='1247'> +7.4009117e+04 </wgt>
<wgt id='1248'> +7.3456618e+04 </wgt>
<wgt id='1249'> +7.3687830e+04 </wgt>
<wgt id='1250'> +7.3619110e+04 </wgt>
<wgt id='1251'> +7.3882285e+04 </wgt>
<wgt id='1252'> +7.4217468e+04 </wgt>
<wgt id='1253'> +7.2914687e+04 </wgt>
<wgt id='1254'> +7.3311134e+04 </wgt>
<wgt id='1255'> +7.3921163e+04 </wgt>
<wgt id='1256'> +7.3719314e+04 </wgt>
<wgt id='1257'> +7.3608824e+04 </wgt>
<wgt id='1258'> +7.3895317e+04 </wgt>
<wgt id='1259'> +7.3785106e+04 </wgt>
<wgt id='1260'> +7.3510829e+04 </wgt>
<wgt id='1261'> +7.3756298e+04 </wgt>
<wgt id='1262'> +7.3782416e+04 </wgt>
<wgt id='1263'> +7.3659409e+04 </wgt>
<wgt id='1264'> +7.4037749e+04 </wgt>
<wgt id='1265'> +7.3669193e+04 </wgt>
<wgt id='1266'> +7.3684306e+04 </wgt>
<wgt id='1267'> +7.3797741e+04 </wgt>
<wgt id='1268'> +7.3642269e+04 </wgt>
<wgt id='1269'> +7.3771428e+04 </wgt>
<wgt id='1270'> +7.3863244e+04 </wgt>
<wgt id='1271'> +7.3775351e+04 </wgt>
<wgt id='1272'> +7.3487692e+04 </wgt>
<wgt id='1273'> +7.3727144e+04 </wgt>
<wgt id='1274'> +7.3889451e+04 </wgt>
<wgt id='1275'> +7.3813533e+04 </wgt>
<wgt id='1276'> +7.3525728e+04 </wgt>
<wgt id='1277'> +7.3542237e+04 </wgt>
<wgt id='1278'> +7.3741957e+04 </wgt>
<wgt id='1279'> +7.3284793e+04 </wgt>
<wgt id='1280'> +7.3744310e+04 </wgt>
<wgt id='1281'> +7.3600688e+04 </wgt>
<wgt id='1282'> +7.3877530e+04 </wgt>
<wgt id='1283'> +7.3687885e+04 </wgt>
<wgt id='1284'> +7.3675501e+04 </wgt>
<wgt id='1285'> +7.3618875e+04 </wgt>
<wgt id='1286'> +7.3742420e+04 </wgt>
<wgt id='1287'> +7.3576145e+04 </wgt>
<wgt id='1288'> +7.3785596e+04 </wgt>
<wgt id='1289'> +7.3905280e+04 </wgt>
<wgt id='1290'> +7.3633413e+04 </wgt>
<wgt id='1291'> +7.3759230e+04 </wgt>
<wgt id='1292'> +7.3737690e+04 </wgt>
<wgt id='1293'> +7.3590948e+04 </wgt>
<wgt id='1294'> +7.3651780e+04 </wgt>
<wgt id='1295'> +7.3585933e+04 </wgt>
<wgt id='1296'> +7.3593503e+04 </wgt>
<wgt id='1297'> +7.3787344e+04 </wgt>
<wgt id='1298'> +7.3851057e+04 </wgt>
<wgt id='1299'> +7.3824701e+04 </wgt>
<wgt id='1300'> +7.3623743e+04 </wgt>
<wgt id='1301'> +7.3701303e+04 </wgt>
<wgt id='1302'> +7.3706034e+04 </wgt>
<wgt id='1303'> +7.3732278e+04 </wgt>
<wgt id='1304'> +7.3542904e+04 </wgt>
<wgt id='1305'> +7.3656174e+04 </wgt>
<wgt id='1306'> +7.3631231e+04 </wgt>
<wgt id='1307'> +7.3792219e+04 </wgt>
<wgt id='1308'> +7.3640042e+04 </wgt>
<wgt id='1309'> +7.3712408e+04 </wgt>
<wgt id='1310'> +7.3738323e+04 </wgt>
<wgt id='1311'> +7.3665587e+04 </wgt>
<wgt id='1312'> +7.3711095e+04 </wgt>
<wgt id='1313'> +7.3731611e+04 </wgt>
<wgt id='1314'> +7.3716224e+04 </wgt>
<wgt id='1315'> +7.3683625e+04 </wgt>
<wgt id='1316'> +7.3647725e+04 </wgt>
<wgt id='1317'> +7.3684763e+04 </wgt>
<wgt id='1318'> +7.3723565e+04 </wgt>
<wgt id='1319'> +7.3751208e+04 </wgt>
<wgt id='1320'> +7.3619091e+04 </wgt>
<wgt id='1321'> +7.3650485e+04 </wgt>
<wgt id='1322'> +7.3754343e+04 </wgt>
<wgt id='1323'> +7.3769636e+04 </wgt>
<wgt id='1324'> +7.2827488e+04 </wgt>
<wgt id='1325'> +7.4846623e+04 </wgt>
<wgt id='1326'> +7.3497017e+04 </wgt>
<wgt id='1327'> +7.0228983e+04 </wgt>
<wgt id='1328'> +7.2595913e+04 </wgt>
<wgt id='1329'> +7.2827630e+04 </wgt>
<wgt id='1330'> +7.3621527e+04 </wgt>
<wgt id='1331'> +7.1754677e+04 </wgt>
<wgt id='1332'> +7.5245117e+04 </wgt>
<wgt id='1333'> +7.3815590e+04 </wgt>
<wgt id='1334'> +7.0148992e+04 </wgt>
<wgt id='1335'> +6.9510559e+04 </wgt>
<wgt id='1336'> +7.2786361e+04 </wgt>
<wgt id='1337'> +7.3644403e+04 </wgt>
<wgt id='1338'> +7.2104396e+04 </wgt>
<wgt id='1339'> +7.3252768e+04 </wgt>
<wgt id='1340'> +7.2033159e+04 </wgt>
<wgt id='1341'> +7.1253825e+04 </wgt>
<wgt id='1342'> +7.4773741e+04 </wgt>
<wgt id='1343'> +7.2222560e+04 </wgt>
<wgt id='1344'> +7.0716777e+04 </wgt>
<wgt id='1345'> +7.4376595e+04 </wgt>
<wgt id='1346'> +7.2328687e+04 </wgt>
<wgt id='1347'> +7.3945749e+04 </wgt>
<wgt id='1348'> +7.0948221e+04 </wgt>
<wgt id='1349'> +7.3302694e+04 </wgt>
<wgt id='1350'> +7.2696167e+04 </wgt>
<wgt id='1351'> +7.1795380e+04 </wgt>
<wgt id='1352'> +7.3224270e+04 </wgt>
<wgt id='1353'> +7.3907726e+04 </wgt>
<wgt id='1354'> +7.1946779e+04 </wgt>
<wgt id='1355'> +7.4366561e+04 </wgt>
<wgt id='1356'> +7.4205513e+04 </wgt>
<wgt id='1357'> +7.1670676e+04 </wgt>
<wgt id='1358'> +7.2016190e+04 </wgt>
<wgt id='1359'> +7.2866608e+04 </wgt>
<wgt id='1360'> +7.4196566e+04 </wgt>
<wgt id='1361'> +7.5285302e+04 </wgt>
<wgt id='1362'> +7.2056368e+04 </wgt>
<wgt id='1363'> +7.0476552e+04 </wgt>
<wgt id='1364'> +7.2037833e+04 </wgt>
<wgt id='1365'> +7.1704777e+04 </wgt>
<wgt id='1366'> +7.2654747e+04 </wgt>
<wgt id='1367'> +7.4089753e+04 </wgt>
<wgt id='1368'> +7.2669421e+04 </wgt>
<wgt id='1369'> +7.2939888e+04 </wgt>
<wgt id='1370'> +7.0991765e+04 </wgt>
<wgt id='1371'> +7.1876402e+04 </wgt>
<wgt id='1372'> +7.4170928e+04 </wgt>
<wgt id='1373'> +7.2106190e+04 </wgt>
<wgt id='1374'> +7.3478675e+04 </wgt>
<wgt id='1375'> +7.3359107e+04 </wgt>
<wgt id='1376'> +7.0518771e+04 </wgt>
<wgt id='1377'> +7.3614748e+04 </wgt>
<wgt id='1378'> +7.1905330e+04 </wgt>
<wgt id='1379'> +7.3834419e+04 </wgt>
<wgt id='1380'> +7.0536003e+04 </wgt>
<wgt id='1381'> +7.2908861e+04 </wgt>
<wgt id='1382'> +7.0565050e+04 </wgt>
<wgt id='1383'> +7.1831562e+04 </wgt>
<wgt id='1384'> +7.2766281e+04 </wgt>
<wgt id='1385'> +6.6554128e+04 </wgt>
<wgt id='1386'> +7.4184868e+04 </wgt>
<wgt id='1387'> +7.4633200e+04 </wgt>
<wgt id='1388'> +7.3937264e+04 </wgt>
<wgt id='1389'> +7.2135584e+04 </wgt>
<wgt id='1390'> +6.7574352e+04 </wgt>
<wgt id='1391'> +7.1676822e+04 </wgt>
<wgt id='1392'> +7.1313646e+04 </wgt>
<wgt id='1393'> +7.1703804e+04 </wgt>
<wgt id='1394'> +7.1704777e+04 </wgt>
<wgt id='1395'> +7.2891087e+04 </wgt>
<wgt id='1396'> +7.3388249e+04 </wgt>
<wgt id='1397'> +7.3119354e+04 </wgt>
<wgt id='1398'> +7.4604278e+04 </wgt>
<wgt id='1399'> +7.2498864e+04 </wgt>
<wgt id='1400'> +7.3513460e+04 </wgt>
<wgt id='1401'> +7.1907289e+04 </wgt>
<wgt id='1402'> +7.2943803e+04 </wgt>
<wgt id='1403'> +7.4629823e+04 </wgt>
<wgt id='1404'> +7.4093416e+04 </wgt>
<wgt id='1405'> +6.9460124e+04 </wgt>
<wgt id='1406'> +7.1977742e+04 </wgt>
<wgt id='1407'> +7.3875319e+04 </wgt>
<wgt id='1408'> +7.5695670e+04 </wgt>
<wgt id='1409'> +7.3050399e+04 </wgt>
<wgt id='1410'> +7.3207010e+04 </wgt>
<wgt id='1411'> +7.2432861e+04 </wgt>
<wgt id='1412'> +7.3752427e+04 </wgt>
<wgt id='1413'> +7.2830277e+04 </wgt>
<wgt id='1414'> +7.0361121e+04 </wgt>
<wgt id='1415'> +6.9825921e+04 </wgt>
<wgt id='1416'> +7.2721380e+04 </wgt>
<wgt id='1417'> +7.1850281e+04 </wgt>
<wgt id='1418'> +7.5781671e+04 </wgt>
<wgt id='1419'> +7.2662277e+04 </wgt>
<wgt id='1420'> +7.0542825e+04 </wgt>
<wgt id='1421'> +7.1969665e+04 </wgt>
<wgt id='1422'> +7.2916333e+04 </wgt>
<wgt id='1423'> +7.2746706e+04 </wgt>
<wgt id='1424'> +7.3210756e+04 </wgt>
<wgt id='1425'> +7.2823167e+04 </wgt>
<wgt id='1426'> +7.2837150e+04 </wgt>
<wgt id='1427'> +7.2887284e+04 </wgt>
<wgt id='1428'> +7.5402857e+04 </wgt>
<wgt id='1429'> +7.2534739e+04 </wgt>
<wgt id='1430'> +7.2825333e+04 </wgt>
<wgt id='1431'> +7.2660598e+04 </wgt>
<wgt id='1432'> +7.3213231e+04 </wgt>
<wgt id='1433'> +7.2577676e+04 </wgt>
<wgt id='1434'> +7.2537837e+04 </wgt>
<wgt id='1435'> +7.2376791e+04 </wgt>
<wgt id='1436'> +7.2089472e+04 </wgt>
<wgt id='1437'> +7.2955122e+04 </wgt>
<wgt id='1438'> +7.2786269e+04 </wgt>
<wgt id='1439'> +7.2063839e+04 </wgt>
<wgt id='1440'> +7.2616568e+04 </wgt>
<wgt id='1441'> +7.2533518e+04 </wgt>
<wgt id='1442'> +7.2459044e+04 </wgt>
<wgt id='1443'> +7.2675106e+04 </wgt>
<wgt id='1444'> +7.2332203e+04 </wgt>
<wgt id='1445'> +7.2028253e+04 </wgt>
<wgt id='1446'> +7.2891163e+04 </wgt>
<wgt id='1447'> +7.2536061e+04 </wgt>
<wgt id='1448'> +7.2833262e+04 </wgt>
<wgt id='1449'> +7.2592722e+04 </wgt>
<wgt id='1450'> +7.2442116e+04 </wgt>
<wgt id='1451'> +7.2705804e+04 </wgt>
<wgt id='1452'> +7.2743409e+04 </wgt>
<wgt id='1453'> +7.2609413e+04 </wgt>
<wgt id='1454'> +7.2711915e+04 </wgt>
<wgt id='1455'> +7.2348343e+04 </wgt>
<wgt id='1456'> +7.2683226e+04 </wgt>
<wgt id='1457'> +7.2588969e+04 </wgt>
<wgt id='1458'> +7.2703635e+04 </wgt>
<wgt id='1459'> +7.2764184e+04 </wgt>
<wgt id='1460'> +7.2468518e+04 </wgt>
<wgt id='1461'> +7.2624569e+04 </wgt>
<wgt id='1462'> +7.2475784e+04 </wgt>
<wgt id='1463'> +7.2644106e+04 </wgt>
<wgt id='1464'> +7.2651204e+04 </wgt>
<wgt id='1465'> +7.2728240e+04 </wgt>
<wgt id='1466'> +7.2652214e+04 </wgt>
<wgt id='1467'> +7.2540109e+04 </wgt>
<wgt id='1468'> +7.2609175e+04 </wgt>
<wgt id='1469'> +7.2634913e+04 </wgt>
<wgt id='1470'> +7.2612317e+04 </wgt>
<wgt id='1471'> +7.2639833e+04 </wgt>
<wgt id='1472'> +7.2574282e+04 </wgt>
<wgt id='1473'> +7.2694487e+04 </wgt>
<wgt id='1474'> +7.2688332e+04 </wgt>
<wgt id='1475'> +7.2698677e+04 </wgt>
<wgt id='1476'> +7.2658442e+04 </wgt>
<wgt id='1477'> +7.2730012e+04 </wgt>
<wgt id='1478'> +7.2738983e+04 </wgt>
<wgt id='1479'> +7.2697449e+04 </wgt>
<wgt id='1480'> +7.2633730e+04 </wgt>
<wgt id='1481'> +7.2672765e+04 </wgt>
<wgt id='1482'> +7.2534739e+04 </wgt>
<wgt id='1483'> +7.2825333e+04 </wgt>
<wgt id='1484'> +7.5562938e+04 </wgt>
<wgt id='1485'> +7.5103244e+04 </wgt>
<wgt id='1486'> +7.6233513e+04 </wgt>
<wgt id='1487'> +7.3323024e+04 </wgt>
<wgt id='1488'> +7.5556551e+04 </wgt>
<wgt id='1489'> +7.5852749e+04 </wgt>
<wgt id='1490'> +7.2059988e+04 </wgt>
<wgt id='1491'> +7.4576091e+04 </wgt>
<wgt id='1492'> +7.3445160e+04 </wgt>
<wgt id='1493'> +7.5437039e+04 </wgt>
<wgt id='1494'> +7.6559908e+04 </wgt>
<wgt id='1495'> +7.1584461e+04 </wgt>
<wgt id='1496'> +7.2662348e+04 </wgt>
<wgt id='1497'> +7.3407706e+04 </wgt>
<wgt id='1498'> +7.7836830e+04 </wgt>
<wgt id='1499'> +7.7079198e+04 </wgt>
<wgt id='1500'> +7.3784057e+04 </wgt>
<wgt id='1501'> +7.4796545e+04 </wgt>
<wgt id='1502'> +7.5960455e+04 </wgt>
<wgt id='1503'> +7.5242523e+04 </wgt>
<wgt id='1504'> +7.6606416e+04 </wgt>
<wgt id='1505'> +7.6512428e+04 </wgt>
<wgt id='1506'> +7.5852604e+04 </wgt>
<wgt id='1507'> +7.4506866e+04 </wgt>
<wgt id='1508'> +7.3322672e+04 </wgt>
<wgt id='1509'> +7.7198785e+04 </wgt>
<wgt id='1510'> +7.8094668e+04 </wgt>
<wgt id='1511'> +7.6407579e+04 </wgt>
<wgt id='1512'> +7.5614435e+04 </wgt>
<wgt id='1513'> +7.5000592e+04 </wgt>
<wgt id='1514'> +7.4988032e+04 </wgt>
<wgt id='1515'> +7.5826055e+04 </wgt>
<wgt id='1516'> +7.5734411e+04 </wgt>
<wgt id='1517'> +7.6734601e+04 </wgt>
<wgt id='1518'> +7.5686002e+04 </wgt>
<wgt id='1519'> +7.5030578e+04 </wgt>
<wgt id='1520'> +7.6814521e+04 </wgt>
<wgt id='1521'> +7.4287544e+04 </wgt>
<wgt id='1522'> +7.8013401e+04 </wgt>
<wgt id='1523'> +7.6545568e+04 </wgt>
<wgt id='1524'> +7.6540740e+04 </wgt>
<wgt id='1525'> +7.5073285e+04 </wgt>
<wgt id='1526'> +7.4815533e+04 </wgt>
<wgt id='1527'> +7.6078828e+04 </wgt>
<wgt id='1528'> +7.5669732e+04 </wgt>
<wgt id='1529'> +7.6157288e+04 </wgt>
<wgt id='1530'> +7.6156270e+04 </wgt>
<wgt id='1531'> +7.5185598e+04 </wgt>
<wgt id='1532'> +7.5939653e+04 </wgt>
<wgt id='1533'> +7.7516086e+04 </wgt>
<wgt id='1534'> +7.6210046e+04 </wgt>
<wgt id='1535'> +7.6030706e+04 </wgt>
<wgt id='1536'> +7.4428165e+04 </wgt>
<wgt id='1537'> +7.6121541e+04 </wgt>
<wgt id='1538'> +7.5295269e+04 </wgt>
<wgt id='1539'> +7.6092840e+04 </wgt>
<wgt id='1540'> +7.7252231e+04 </wgt>
<wgt id='1541'> +7.6229609e+04 </wgt>
<wgt id='1542'> +7.5762292e+04 </wgt>
<wgt id='1543'> +7.6814061e+04 </wgt>
<wgt id='1544'> +7.6203190e+04 </wgt>
<wgt id='1545'> +7.6410112e+04 </wgt>
<wgt id='1546'> +7.5277601e+04 </wgt>
<wgt id='1547'> +7.5891961e+04 </wgt>
<wgt id='1548'> +7.6340362e+04 </wgt>
<wgt id='1549'> +7.7616975e+04 </wgt>
<wgt id='1550'> +7.8089628e+04 </wgt>
<wgt id='1551'> +7.7159227e+04 </wgt>
<wgt id='1552'> +7.5721147e+04 </wgt>
<wgt id='1553'> +7.8028257e+04 </wgt>
<wgt id='1554'> +7.5648844e+04 </wgt>
<wgt id='1555'> +7.3719533e+04 </wgt>
<wgt id='1556'> +7.2948915e+04 </wgt>
<wgt id='1557'> +7.6093160e+04 </wgt>
<wgt id='1558'> +7.5510633e+04 </wgt>
<wgt id='1559'> +7.6744121e+04 </wgt>
<wgt id='1560'> +7.6372852e+04 </wgt>
<wgt id='1561'> +7.6718417e+04 </wgt>
<wgt id='1562'> +7.6099706e+04 </wgt>
<wgt id='1563'> +7.4829705e+04 </wgt>
<wgt id='1564'> +7.4614875e+04 </wgt>
<wgt id='1565'> +7.5383105e+04 </wgt>
<wgt id='1566'> +7.5232714e+04 </wgt>
<wgt id='1567'> +7.5107649e+04 </wgt>
<wgt id='1568'> +7.5678539e+04 </wgt>
<wgt id='1569'> +7.5492860e+04 </wgt>
<wgt id='1570'> +7.6562161e+04 </wgt>
<wgt id='1571'> +7.4516629e+04 </wgt>
<wgt id='1572'> +7.4130351e+04 </wgt>
<wgt id='1573'> +7.5144018e+04 </wgt>
<wgt id='1574'> +7.3650411e+04 </wgt>
<wgt id='1575'> +7.3407617e+04 </wgt>
<wgt id='1576'> +7.5302684e+04 </wgt>
<wgt id='1577'> +7.2412303e+04 </wgt>
<wgt id='1578'> +7.7513448e+04 </wgt>
<wgt id='1579'> +7.4002770e+04 </wgt>
<wgt id='1580'> +7.6559399e+04 </wgt>
<wgt id='1581'> +7.7269391e+04 </wgt>
<wgt id='1582'> +7.5171423e+04 </wgt>
<wgt id='1583'> +7.5770747e+04 </wgt>
<wgt id='1584'> +7.3522341e+04 </wgt>
<wgt id='1585'> +7.3404863e+04 </wgt>
<wgt id='1586'> +6.3539724e+04 </wgt>
<wgt id='1587'> +7.2455224e+04 </wgt>
<wgt id='1588'> +7.2534739e+04 </wgt>
<wgt id='1589'> +7.2401724e+04 </wgt>
<wgt id='1590'> +7.2469165e+04 </wgt>
<wgt id='1591'> +7.2825333e+04 </wgt>
<wgt id='1592'> +7.2624862e+04 </wgt>
<wgt id='1593'> +7.7091262e+04 </wgt>
<wgt id='1594'> +7.6691796e+04 </wgt>
<wgt id='1595'> +7.6088003e+04 </wgt>
<wgt id='1596'> +7.6603233e+04 </wgt>
<wgt id='1597'> +7.7658963e+04 </wgt>
<wgt id='1598'> +7.5223740e+04 </wgt>
<wgt id='1599'> +7.8703881e+04 </wgt>
<wgt id='1600'> +7.5662154e+04 </wgt>
<wgt id='1601'> +7.8664437e+04 </wgt>
<wgt id='1602'> +7.7012081e+04 </wgt>
<wgt id='1603'> +7.7454852e+04 </wgt>
<wgt id='1604'> +7.9077617e+04 </wgt>
<wgt id='1605'> +7.5930324e+04 </wgt>
<wgt id='1606'> +7.5811805e+04 </wgt>
<wgt id='1607'> +7.8180294e+04 </wgt>
<wgt id='1608'> +7.6259507e+04 </wgt>
<wgt id='1609'> +7.7269658e+04 </wgt>
<wgt id='1610'> +7.7500493e+04 </wgt>
<wgt id='1611'> +7.6518257e+04 </wgt>
<wgt id='1612'> +7.8369854e+04 </wgt>
<wgt id='1613'> +7.5124791e+04 </wgt>
<wgt id='1614'> +7.7218085e+04 </wgt>
<wgt id='1615'> +7.6993310e+04 </wgt>
<wgt id='1616'> +7.6893988e+04 </wgt>
<wgt id='1617'> +7.6723877e+04 </wgt>
<wgt id='1618'> +7.7028315e+04 </wgt>
<wgt id='1619'> +7.7334673e+04 </wgt>
<wgt id='1620'> +7.6815950e+04 </wgt>
<wgt id='1621'> +7.7252062e+04 </wgt>
<wgt id='1622'> +7.6864899e+04 </wgt>
<wgt id='1623'> +7.6460291e+04 </wgt>
<wgt id='1624'> +7.7683809e+04 </wgt>
<wgt id='1625'> +7.6084142e+04 </wgt>
<wgt id='1626'> +7.6212924e+04 </wgt>
<wgt id='1627'> +7.7772158e+04 </wgt>
<wgt id='1628'> +7.6842432e+04 </wgt>
<wgt id='1629'> +7.7517544e+04 </wgt>
<wgt id='1630'> +7.6884070e+04 </wgt>
<wgt id='1631'> +7.6678961e+04 </wgt>
<wgt id='1632'> +7.6946137e+04 </wgt>
<wgt id='1633'> +7.7095986e+04 </wgt>
<wgt id='1634'> +7.7718804e+04 </wgt>
<wgt id='1635'> +7.6556774e+04 </wgt>
<wgt id='1636'> +7.6629294e+04 </wgt>
<wgt id='1637'> +7.7866347e+04 </wgt>
<wgt id='1638'> +7.7275276e+04 </wgt>
<wgt id='1639'> +7.7020119e+04 </wgt>
<wgt id='1640'> +7.7854863e+04 </wgt>
<wgt id='1641'> +7.6389884e+04 </wgt>
<wgt id='1642'> +7.7104321e+04 </wgt>
<wgt id='1643'> +7.6939267e+04 </wgt>
<wgt id='1644'> +7.8059369e+04 </wgt>
<wgt id='1645'> +7.5950071e+04 </wgt>
<wgt id='1646'> +7.6970085e+04 </wgt>
<wgt id='1647'> +7.8012293e+04 </wgt>
<wgt id='1648'> +7.6962496e+04 </wgt>
<wgt id='1649'> +7.7676004e+04 </wgt>
<wgt id='1650'> +7.8133068e+04 </wgt>
<wgt id='1651'> +7.5772070e+04 </wgt>
<wgt id='1652'> +7.6570035e+04 </wgt>
<wgt id='1653'> +7.6831233e+04 </wgt>
<wgt id='1654'> +7.7356677e+04 </wgt>
<wgt id='1655'> +7.7632045e+04 </wgt>
<wgt id='1656'> +7.8101570e+04 </wgt>
<wgt id='1657'> +7.7361743e+04 </wgt>
<wgt id='1658'> +7.7773632e+04 </wgt>
<wgt id='1659'> +7.9158132e+04 </wgt>
<wgt id='1660'> +7.8712813e+04 </wgt>
<wgt id='1661'> +7.8216467e+04 </wgt>
<wgt id='1662'> +7.7571025e+04 </wgt>
<wgt id='1663'> +7.7928612e+04 </wgt>
<wgt id='1664'> +7.7457750e+04 </wgt>
<wgt id='1665'> +7.7769283e+04 </wgt>
<wgt id='1666'> +7.8895163e+04 </wgt>
<wgt id='1667'> +7.7642051e+04 </wgt>
<wgt id='1668'> +7.8749416e+04 </wgt>
<wgt id='1669'> +7.8637249e+04 </wgt>
<wgt id='1670'> +7.7932620e+04 </wgt>
<wgt id='1671'> +7.9282814e+04 </wgt>
<wgt id='1672'> +7.7072095e+04 </wgt>
<wgt id='1673'> +7.9743832e+04 </wgt>
<wgt id='1674'> +7.7887721e+04 </wgt>
<wgt id='1675'> +7.8849385e+04 </wgt>
<wgt id='1676'> +7.7598822e+04 </wgt>
<wgt id='1677'> +7.8179083e+04 </wgt>
<wgt id='1678'> +7.8821103e+04 </wgt>
<wgt id='1679'> +7.7492850e+04 </wgt>
<wgt id='1680'> +7.9321264e+04 </wgt>
<wgt id='1681'> +7.8083201e+04 </wgt>
<wgt id='1682'> +7.7696501e+04 </wgt>
<wgt id='1683'> +7.7979483e+04 </wgt>
<wgt id='1684'> +7.8153555e+04 </wgt>
<wgt id='1685'> +7.8917273e+04 </wgt>
<wgt id='1686'> +7.7000316e+04 </wgt>
<wgt id='1687'> +7.8512886e+04 </wgt>
<wgt id='1688'> +7.7270406e+04 </wgt>
<wgt id='1689'> +7.7686165e+04 </wgt>
<wgt id='1690'> +7.9860437e+04 </wgt>
<wgt id='1691'> +7.8384763e+04 </wgt>
<wgt id='1692'> +7.8117255e+04 </wgt>
<wgt id='1693'> +7.8553323e+04 </wgt>
<wgt id='1694'> +7.8273656e+04 </wgt>
<wgt id='1695'> +7.7605039e+04 </wgt>
<wgt id='1696'> +7.8382288e+04 </wgt>
<wgt id='1697'> +7.8934320e+04 </wgt>
<wgt id='1698'> +7.7335924e+04 </wgt>
<wgt id='1699'> +7.6911636e+04 </wgt>
<wgt id='1700'> +7.9480966e+04 </wgt>
<wgt id='1701'> +7.6472187e+04 </wgt>
<wgt id='1702'> +7.9980613e+04 </wgt>
<wgt id='1703'> +7.7869752e+04 </wgt>
<wgt id='1704'> +7.9034800e+04 </wgt>
<wgt id='1705'> +7.7671258e+04 </wgt>
<wgt id='1706'> +7.8958562e+04 </wgt>
<wgt id='1707'> +7.6923235e+04 </wgt>
<wgt id='1708'> +7.8989339e+04 </wgt>
<wgt id='1709'> +7.7606029e+04 </wgt>
<wgt id='1710'> +7.8758896e+04 </wgt>
<wgt id='1711'> +7.7958384e+04 </wgt>
<wgt id='1712'> +7.7954866e+04 </wgt>
<wgt id='1713'> +7.8782713e+04 </wgt>
<wgt id='1714'> +7.7096176e+04 </wgt>
<wgt id='1715'> +7.5701837e+04 </wgt>
<wgt id='1716'> +7.8026204e+04 </wgt>
<wgt id='1717'> +7.2782222e+04 </wgt>
<wgt id='1718'> +7.2842252e+04 </wgt>
<wgt id='1719'> +7.2704046e+04 </wgt>
<wgt id='1720'> +7.2806862e+04 </wgt>
<wgt id='1721'> +7.2759720e+04 </wgt>
<wgt id='1722'> +7.2823368e+04 </wgt>
<wgt id='1723'> +7.2714429e+04 </wgt>
<wgt id='1724'> +7.2926361e+04 </wgt>
<wgt id='1725'> +7.2664935e+04 </wgt>
<wgt id='1726'> +7.2653944e+04 </wgt>
<wgt id='1727'> +7.2914259e+04 </wgt>
<wgt id='1728'> +7.1821954e+04 </wgt>
<wgt id='1729'> +7.3718418e+04 </wgt>
<wgt id='1730'> +7.2828334e+04 </wgt>
<wgt id='1731'> +7.2749031e+04 </wgt>
<wgt id='1732'> +7.3220806e+04 </wgt>
<wgt id='1733'> +7.3220806e+04 </wgt>
<wgt id='1734'> +7.2373051e+04 </wgt>
<wgt id='1735'> +7.3056539e+04 </wgt>
<wgt id='1736'> +7.2498150e+04 </wgt>
<wgt id='1737'> +7.3175447e+04 </wgt>
<wgt id='1738'> +7.2927780e+04 </wgt>
<wgt id='1739'> +7.2465164e+04 </wgt>
<wgt id='1740'> +7.2805043e+04 </wgt>
<wgt id='1741'> +7.2719412e+04 </wgt>
<wgt id='1742'> +7.2558914e+04 </wgt>
<wgt id='1743'> +7.3033384e+04 </wgt>
<wgt id='1744'> +7.2862951e+04 </wgt>
<wgt id='1745'> +7.2561990e+04 </wgt>
<wgt id='1746'> +7.2495103e+04 </wgt>
<wgt id='1747'> +7.2918491e+04 </wgt>
<wgt id='1748'> +7.3089117e+04 </wgt>
<wgt id='1749'> +7.1781688e+04 </wgt>
<wgt id='1750'> +7.2980761e+04 </wgt>
<wgt id='1751'> +7.2571152e+04 </wgt>
<wgt id='1752'> +7.2516066e+04 </wgt>
<wgt id='1753'> +7.3149210e+04 </wgt>
<wgt id='1754'> +7.3253239e+04 </wgt>
<wgt id='1755'> +7.2523731e+04 </wgt>
<wgt id='1756'> +7.2307653e+04 </wgt>
<wgt id='1757'> +7.3952931e+04 </wgt>
<wgt id='1758'> +7.2661290e+04 </wgt>
<wgt id='1759'> +7.2675561e+04 </wgt>
<wgt id='1760'> +7.3082912e+04 </wgt>
<wgt id='1761'> +7.2528464e+04 </wgt>
<wgt id='1762'> +7.2600330e+04 </wgt>
<wgt id='1763'> +7.3205802e+04 </wgt>
<wgt id='1764'> +7.2773772e+04 </wgt>
<wgt id='1765'> +7.2786285e+04 </wgt>
<wgt id='1766'> +7.2769361e+04 </wgt>
<wgt id='1767'> +7.2722724e+04 </wgt>
<wgt id='1768'> +7.2812961e+04 </wgt>
<wgt id='1769'> +7.2772201e+04 </wgt>
<wgt id='1770'> +7.2565210e+04 </wgt>
<wgt id='1771'> +7.3086213e+04 </wgt>
<wgt id='1772'> +7.2838054e+04 </wgt>
<wgt id='1773'> +7.2913244e+04 </wgt>
<wgt id='1774'> +7.1840204e+04 </wgt>
<wgt id='1775'> +7.3375548e+04 </wgt>
<wgt id='1776'> +7.2293715e+04 </wgt>
<wgt id='1777'> +7.3010229e+04 </wgt>
<wgt id='1778'> +7.2526829e+04 </wgt>
<wgt id='1779'> +7.2877189e+04 </wgt>
<wgt id='1780'> +7.3374376e+04 </wgt>
<wgt id='1781'> +7.2775216e+04 </wgt>
<wgt id='1782'> +7.2782222e+04 </wgt>
<wgt id='1783'> +7.2925978e+04 </wgt>
<wgt id='1784'> +7.3983855e+04 </wgt>
<wgt id='1785'> +7.3643140e+04 </wgt>
<wgt id='1786'> +7.2200345e+04 </wgt>
<wgt id='1787'> +7.3887790e+04 </wgt>
<wgt id='1788'> +7.4171516e+04 </wgt>
<wgt id='1789'> +7.4013020e+04 </wgt>
<wgt id='1790'> +7.3399589e+04 </wgt>
<wgt id='1791'> +7.3816135e+04 </wgt>
<wgt id='1792'> +7.3568071e+04 </wgt>
<wgt id='1793'> +7.4051593e+04 </wgt>
<wgt id='1794'> +7.4513741e+04 </wgt>
<wgt id='1795'> +7.3508879e+04 </wgt>
<wgt id='1796'> +7.3939077e+04 </wgt>
<wgt id='1797'> +7.4003517e+04 </wgt>
<wgt id='1798'> +7.3832165e+04 </wgt>
<wgt id='1799'> +7.4524992e+04 </wgt>
<wgt id='1800'> +7.4792795e+04 </wgt>
<wgt id='1801'> +7.4678249e+04 </wgt>
<wgt id='1802'> +7.4003192e+04 </wgt>
<wgt id='1803'> +7.4256861e+04 </wgt>
<wgt id='1804'> +7.3140130e+04 </wgt>
<wgt id='1805'> +7.3880710e+04 </wgt>
<wgt id='1806'> +7.3841996e+04 </wgt>
<wgt id='1807'> +7.4048004e+04 </wgt>
<wgt id='1808'> +7.3988818e+04 </wgt>
<wgt id='1809'> +7.3076029e+04 </wgt>
<wgt id='1810'> +7.3786614e+04 </wgt>
<wgt id='1811'> +7.3715240e+04 </wgt>
<wgt id='1812'> +7.3839991e+04 </wgt>
<wgt id='1813'> +7.3285791e+04 </wgt>
<wgt id='1814'> +7.3753477e+04 </wgt>
<wgt id='1815'> +7.3972918e+04 </wgt>
<wgt id='1816'> +7.3739966e+04 </wgt>
<wgt id='1817'> +7.3679812e+04 </wgt>
<wgt id='1818'> +7.3968735e+04 </wgt>
<wgt id='1819'> +7.4205565e+04 </wgt>
<wgt id='1820'> +7.3748497e+04 </wgt>
<wgt id='1821'> +7.4010075e+04 </wgt>
<wgt id='1822'> +7.4064457e+04 </wgt>
<wgt id='1823'> +7.3760412e+04 </wgt>
<wgt id='1824'> +7.5044820e+04 </wgt>
<wgt id='1825'> +7.3738509e+04 </wgt>
<wgt id='1826'> +7.4724637e+04 </wgt>
<wgt id='1827'> +7.8798255e+04 </wgt>
<wgt id='1828'> +7.8920410e+04 </wgt>
<wgt id='1829'> +7.8649721e+04 </wgt>
<wgt id='1830'> +7.8872795e+04 </wgt>
<wgt id='1831'> +7.8696096e+04 </wgt>
<wgt id='1832'> +7.8852426e+04 </wgt>
<wgt id='1833'> +7.8717083e+04 </wgt>
<wgt id='1834'> +7.8445529e+04 </wgt>
<wgt id='1835'> +7.9107877e+04 </wgt>
<wgt id='1836'> +7.8893886e+04 </wgt>
<wgt id='1837'> +7.8659995e+04 </wgt>
<wgt id='1838'> +7.8417363e+04 </wgt>
<wgt id='1839'> +7.9111667e+04 </wgt>
<wgt id='1840'> +7.8787090e+04 </wgt>
<wgt id='1841'> +7.8790395e+04 </wgt>
<wgt id='1842'> +7.8900231e+04 </wgt>
<wgt id='1843'> +7.8987331e+04 </wgt>
<wgt id='1844'> +7.8181668e+04 </wgt>
<wgt id='1845'> +7.9362827e+04 </wgt>
<wgt id='1846'> +7.7266124e+04 </wgt>
<wgt id='1847'> +8.0222294e+04 </wgt>
<wgt id='1848'> +7.8858352e+04 </wgt>
<wgt id='1849'> +7.8603350e+04 </wgt>
<wgt id='1850'> +7.9514439e+04 </wgt>
<wgt id='1851'> +7.8089078e+04 </wgt>
<wgt id='1852'> +7.9275030e+04 </wgt>
<wgt id='1853'> +7.8342541e+04 </wgt>
<wgt id='1854'> +7.8978692e+04 </wgt>
<wgt id='1855'> +7.8718611e+04 </wgt>
<wgt id='1856'> +7.4019541e+04 </wgt>
<wgt id='1857'> +7.4006517e+04 </wgt>
<wgt id='1858'> +7.3918963e+04 </wgt>
<wgt id='1859'> +7.3998728e+04 </wgt>
<wgt id='1860'> +7.4020362e+04 </wgt>
<wgt id='1861'> +7.4020863e+04 </wgt>
<wgt id='1862'> +7.3680518e+04 </wgt>
<wgt id='1863'> +7.4062279e+04 </wgt>
<wgt id='1864'> +7.3926773e+04 </wgt>
<wgt id='1865'> +7.3702266e+04 </wgt>
<wgt id='1866'> +7.4025586e+04 </wgt>
<wgt id='1867'> +7.3997518e+04 </wgt>
<wgt id='1868'> +7.4083908e+04 </wgt>
<wgt id='1869'> +7.4131656e+04 </wgt>
<wgt id='1870'> +7.3769312e+04 </wgt>
<wgt id='1871'> +7.3806115e+04 </wgt>
<wgt id='1872'> +7.3759268e+04 </wgt>
<wgt id='1873'> +7.3932539e+04 </wgt>
<wgt id='1874'> +7.3806294e+04 </wgt>
<wgt id='1875'> +7.4124561e+04 </wgt>
<wgt id='1876'> +7.3835139e+04 </wgt>
<wgt id='1877'> +7.3548120e+04 </wgt>
<wgt id='1878'> +7.3956286e+04 </wgt>
<wgt id='1879'> +7.4571342e+04 </wgt>
<wgt id='1880'> +7.4402910e+04 </wgt>
<wgt id='1881'> +7.3909983e+04 </wgt>
<wgt id='1882'> +7.3972173e+04 </wgt>
<wgt id='1883'> +7.4442659e+04 </wgt>
<wgt id='1884'> +7.3361757e+04 </wgt>
<wgt id='1885'> +7.3314426e+04 </wgt>
<wgt id='1886'> +7.5241842e+04 </wgt>
<wgt id='1887'> +7.8357497e+04 </wgt>
<wgt id='1888'> +6.5340673e+04 </wgt>
<wgt id='1889'> +7.7186227e+04 </wgt>
</rwgt>
</event>
<event npLO=" -1 " npNLO=" 0 ">
 5      1 +7.4519530e+04 3.50588150e+01 7.55820760e-03 1.16305600e-01
        1 -1    0    0  501    0 +0.0000000000e+00 +0.0000000000e+00 +1.0989047789e+02 1.0989047789e+02 0.0000000000e+00 0.0000e+00 -1.0000e+00
       -2 -1    0    0    0  501 +0.0000000000e+00 +0.0000000000e+00 -1.4215846721e+01 1.4215846721e+01 0.0000000000e+00 0.0000e+00 1.0000e+00
      -24  2    1    2    0    0 +0.0000000000e+00 +0.0000000000e+00 +9.5674631167e+01 1.2410632461e+02 7.9049002264e+01 0.0000e+00 0.0000e+00
       15  1    3    3    0    0 +1.4456371914e+01 +3.1914815743e+01 +1.9208998082e+01 3.9996068421e+01 1.7770000000e+00 0.0000e+00 -1.0000e+00
      -16  1    3    3    0    0 -1.4456371914e+01 -3.1914815743e+01 +7.6465633085e+01 8.4110256187e+01 0.0000000000e+00 0.0000e+00 1.0000e+00
#aMCatNLO 1  0  0  1  2 0.90195834E+02 0.00000000E+00 -9  5  0 0.00000000E+00 0.00000000E+00 0.00000000E+00 0.00000000E+00 0.00000000E+00
<rwgt>
<wgt id='1001'> +7.4519530e+04 </wgt>
<wgt id='1002'> +7.4730875e+04 </wgt>
<wgt id='1003'> +7.4256038e+04 </wgt>
<wgt id='1004'> +8.2556300e+04 </wgt>
<wgt id='1005'> +8.2859169e+04 </wgt>
<wgt id='1006'> +8.2178688e+04 </wgt>
<wgt id='1007'> +6.5602817e+04 </wgt>
<wgt id='1008'> +6.5735150e+04 </wgt>
<wgt id='1009'> +6.5437827e+04 </wgt>
<wgt id='1010'> +7.4519530e+04 </wgt>
<wgt id='1011'> +7.4566374e+04 </wgt>
<wgt id='1012'> +7.4324139e+04 </wgt>
<wgt id='1013'> +7.4199100e+04 </wgt>
<wgt id='1014'> +7.4811200e+04 </wgt>
<wgt id='1015'> +7.4454511e+04 </wgt>
<wgt id='1016'> +7.4460709e+04 </wgt>
<wgt id='1017'> +7.4676098e+04 </wgt>
<wgt id='1018'> +7.4258559e+04 </wgt>
<wgt id='1019'> +7.4926779e+04 </wgt>
<wgt id='1020'> +7.4191113e+04 </wgt>
<wgt id='1021'> +7.4485411e+04 </wgt>
<wgt id='1022'> +7.4578062e+04 </wgt>
<wgt id='1023'> +7.4677668e+04 </wgt>
<wgt id='1024'> +7.4667888e+04 </wgt>
<wgt id='1025'> +7.5199115e+04 </wgt>
<wgt id='1026'> +7.4189773e+04 </wgt>
<wgt id='1027'> +7.4475820e+04 </wgt>
<wgt id='1028'> +7.3948969e+04 </wgt>
<wgt id='1029'> +7.4573594e+04 </wgt>
<wgt id='1030'> +7.4674756e+04 </wgt>
<wgt id='1031'> +7.4529359e+04 </wgt>
<wgt id='1032'> +7.4851042e+04 </wgt>
<wgt id='1033'> +7.4281707e+04 </wgt>
<wgt id='1034'> +7.4331811e+04 </wgt>
<wgt id='1035'> +7.4149822e+04 </wgt>
<wgt id='1036'> +7.4199181e+04 </wgt>
<wgt id='1037'> +7.5287043e+04 </wgt>
<wgt id='1038'> +7.4744540e+04 </wgt>
<wgt id='1039'> +7.4512236e+04 </wgt>
<wgt id='1040'> +7.4555117e+04 </wgt>
<wgt id='1041'> +7.4841751e+04 </wgt>
<wgt id='1042'> +7.4462459e+04 </wgt>
<wgt id='1043'> +7.4577061e+04 </wgt>
<wgt id='1044'> +7.4537790e+04 </wgt>
<wgt id='1045'> +7.4600633e+04 </wgt>
<wgt id='1046'> +7.4549172e+04 </wgt>
<wgt id='1047'> +7.4405480e+04 </wgt>
<wgt id='1048'> +7.4667661e+04 </wgt>
<wgt id='1049'> +7.4833129e+04 </wgt>
<wgt id='1050'> +7.4489292e+04 </wgt>
<wgt id='1051'> +7.4701499e+04 </wgt>
<wgt id='1052'> +7.4558197e+04 </wgt>
<wgt id='1053'> +7.4126250e+04 </wgt>
<wgt id='1054'> +7.4319093e+04 </wgt>
<wgt id='1055'> +7.4538944e+04 </wgt>
<wgt id='1056'> +7.4727498e+04 </wgt>
<wgt id='1057'> +7.4413397e+04 </wgt>
<wgt id='1058'> +7.4653803e+04 </wgt>
<wgt id='1059'> +7.4411386e+04 </wgt>
<wgt id='1060'> +7.4533623e+04 </wgt>
<wgt id='1061'> +7.4404180e+04 </wgt>
<wgt id='1062'> +7.4617317e+04 </wgt>
<wgt id='1063'> +7.4384963e+04 </wgt>
<wgt id='1064'> +7.4578016e+04 </wgt>
<wgt id='1065'> +7.4570111e+04 </wgt>
<wgt id='1066'> +7.4678729e+04 </wgt>
<wgt id='1067'> +7.4636126e+04 </wgt>
<wgt id='1068'> +7.4571188e+04 </wgt>
<wgt id='1069'> +7.4522491e+04 </wgt>
<wgt id='1070'> +7.4493922e+04 </wgt>
<wgt id='1071'> +7.4539196e+04 </wgt>
<wgt id='1072'> +7.4579914e+04 </wgt>
<wgt id='1073'> +7.4599786e+04 </wgt>
<wgt id='1074'> +7.4495781e+04 </wgt>
<wgt id='1075'> +7.4470323e+04 </wgt>
<wgt id='1076'> +7.4552562e+04 </wgt>
<wgt id='1077'> +7.4532639e+04 </wgt>
<wgt id='1078'> +7.4566505e+04 </wgt>
<wgt id='1079'> +7.4627445e+04 </wgt>
<wgt id='1080'> +7.4536934e+04 </wgt>
<wgt id='1081'> +7.4603615e+04 </wgt>
<wgt id='1082'> +7.4526774e+04 </wgt>
<wgt id='1083'> +7.4494857e+04 </wgt>
<wgt id='1084'> +7.4630922e+04 </wgt>
<wgt id='1085'> +7.4477963e+04 </wgt>
<wgt id='1086'> +7.4531916e+04 </wgt>
<wgt id='1087'> +7.4550084e+04 </wgt>
<wgt id='1088'> +7.4515429e+04 </wgt>
<wgt id='1089'> +7.4584392e+04 </wgt>
<wgt id='1090'> +7.4532084e+04 </wgt>
<wgt id='1091'> +7.4525587e+04 </wgt>
<wgt id='1092'> +7.4475511e+04 </wgt>
<wgt id='1093'> +7.4499619e+04 </wgt>
<wgt id='1094'> +7.4544582e+04 </wgt>
<wgt id='1095'> +7.4497961e+04 </wgt>
<wgt id='1096'> +7.4540699e+04 </wgt>
<wgt id='1097'> +7.4499264e+04 </wgt>
<wgt id='1098'> +7.4516399e+04 </wgt>
<wgt id='1099'> +7.4522300e+04 </wgt>
<wgt id='1100'> +7.4501065e+04 </wgt>
<wgt id='1101'> +7.4483476e+04 </wgt>
<wgt id='1102'> +7.4554018e+04 </wgt>
<wgt id='1103'> +7.4541171e+04 </wgt>
<wgt id='1104'> +7.4502777e+04 </wgt>
<wgt id='1105'> +7.4581262e+04 </wgt>
<wgt id='1106'> +7.4500198e+04 </wgt>
<wgt id='1107'> +7.4504516e+04 </wgt>
<wgt id='1108'> +7.4507117e+04 </wgt>
<wgt id='1109'> +7.4553409e+04 </wgt>
<wgt id='1110'> +7.4519534e+04 </wgt>
<wgt id='1111'> +7.3910561e+04 </wgt>
<wgt id='1112'> +7.4971215e+04 </wgt>
<wgt id='1113'> +7.4519534e+04 </wgt>
<wgt id='1114'> +8.0760005e+04 </wgt>
<wgt id='1115'> +7.4641528e+04 </wgt>
<wgt id='1116'> +7.0971559e+04 </wgt>
<wgt id='1117'> +7.1878131e+04 </wgt>
<wgt id='1118'> +7.3428050e+04 </wgt>
<wgt id='1119'> +7.7922068e+04 </wgt>
<wgt id='1120'> +7.5016096e+04 </wgt>
<wgt id='1121'> +7.2796987e+04 </wgt>
<wgt id='1122'> +7.2228504e+04 </wgt>
<wgt id='1123'> +7.3305551e+04 </wgt>
<wgt id='1124'> +7.5007129e+04 </wgt>
<wgt id='1125'> +7.2140078e+04 </wgt>
<wgt id='1126'> +7.3998930e+04 </wgt>
<wgt id='1127'> +7.3794041e+04 </wgt>
<wgt id='1128'> +7.5805649e+04 </wgt>
<wgt id='1129'> +7.5064223e+04 </wgt>
<wgt id='1130'> +7.7154030e+04 </wgt>
<wgt id='1131'> +7.3538566e+04 </wgt>
<wgt id='1132'> +7.4283005e+04 </wgt>
<wgt id='1133'> +7.1211210e+04 </wgt>
<wgt id='1134'> +7.1389388e+04 </wgt>
<wgt id='1135'> +7.4407333e+04 </wgt>
<wgt id='1136'> +7.7041132e+04 </wgt>
<wgt id='1137'> +7.4261165e+04 </wgt>
<wgt id='1138'> +7.2349276e+04 </wgt>
<wgt id='1139'> +7.6268792e+04 </wgt>
<wgt id='1140'> +7.8130468e+04 </wgt>
<wgt id='1141'> +7.3951968e+04 </wgt>
<wgt id='1142'> +7.6256260e+04 </wgt>
<wgt id='1143'> +7.6466412e+04 </wgt>
<wgt id='1144'> +7.4956145e+04 </wgt>
<wgt id='1145'> +7.3486604e+04 </wgt>
<wgt id='1146'> +7.5403703e+04 </wgt>
<wgt id='1147'> +7.2969847e+04 </wgt>
<wgt id='1148'> +7.6104828e+04 </wgt>
<wgt id='1149'> +7.3800900e+04 </wgt>
<wgt id='1150'> +7.4472543e+04 </wgt>
<wgt id='1151'> +7.3448292e+04 </wgt>
<wgt id='1152'> +7.2707294e+04 </wgt>
<wgt id='1153'> +7.3473029e+04 </wgt>
<wgt id='1154'> +7.3660495e+04 </wgt>
<wgt id='1155'> +7.5385559e+04 </wgt>
<wgt id='1156'> +7.6025424e+04 </wgt>
<wgt id='1157'> +7.5696688e+04 </wgt>
<wgt id='1158'> +7.5490844e+04 </wgt>
<wgt id='1159'> +7.5958686e+04 </wgt>
<wgt id='1160'> +7.4256943e+04 </wgt>
<wgt id='1161'> +7.4175559e+04 </wgt>
<wgt id='1162'> +7.6884589e+04 </wgt>
<wgt id='1163'> +7.5989727e+04 </wgt>
<wgt id='1164'> +7.4720203e+04 </wgt>
<wgt id='1165'> +7.3336161e+04 </wgt>
<wgt id='1166'> +7.5083939e+04 </wgt>
<wgt id='1167'> +7.7273308e+04 </wgt>
<wgt id='1168'> +7.4619549e+04 </wgt>
<wgt id='1169'> +7.5167999e+04 </wgt>
<wgt id='1170'> +7.7379813e+04 </wgt>
<wgt id='1171'> +7.3427056e+04 </wgt>
<wgt id='1172'> +7.4739503e+04 </wgt>
<wgt id='1173'> +7.5768566e+04 </wgt>
<wgt id='1174'> +7.4914149e+04 </wgt>
<wgt id='1175'> +7.5740737e+04 </wgt>
<wgt id='1176'> +7.3531554e+04 </wgt>
<wgt id='1177'> +7.2542975e+04 </wgt>
<wgt id='1178'> +7.5323386e+04 </wgt>
<wgt id='1179'> +7.5402925e+04 </wgt>
<wgt id='1180'> +7.5901324e+04 </wgt>
<wgt id='1181'> +7.6127703e+04 </wgt>
<wgt id='1182'> +7.4989161e+04 </wgt>
<wgt id='1183'> +7.4469493e+04 </wgt>
<wgt id='1184'> +7.3822524e+04 </wgt>
<wgt id='1185'> +7.7861240e+04 </wgt>
<wgt id='1186'> +7.0182533e+04 </wgt>
<wgt id='1187'> +7.1341682e+04 </wgt>
<wgt id='1188'> +7.3017959e+04 </wgt>
<wgt id='1189'> +7.6595617e+04 </wgt>
<wgt id='1190'> +7.1262064e+04 </wgt>
<wgt id='1191'> +7.4531151e+04 </wgt>
<wgt id='1192'> +7.3938835e+04 </wgt>
<wgt id='1193'> +7.5316357e+04 </wgt>
<wgt id='1194'> +7.3602132e+04 </wgt>
<wgt id='1195'> +7.5064223e+04 </wgt>
<wgt id='1196'> +7.4070991e+04 </wgt>
<wgt id='1197'> +7.3342397e+04 </wgt>
<wgt id='1198'> +7.3581526e+04 </wgt>
<wgt id='1199'> +7.7985796e+04 </wgt>
<wgt id='1200'> +7.5023383e+04 </wgt>
<wgt id='1201'> +7.6315434e+04 </wgt>
<wgt id='1202'> +7.0109770e+04 </wgt>
<wgt id='1203'> +7.3681543e+04 </wgt>
<wgt id='1204'> +7.5322619e+04 </wgt>
<wgt id='1205'> +7.3404165e+04 </wgt>
<wgt id='1206'> +7.3725408e+04 </wgt>
<wgt id='1207'> +7.7180470e+04 </wgt>
<wgt id='1208'> +7.3205265e+04 </wgt>
<wgt id='1209'> +7.3956245e+04 </wgt>
<wgt id='1210'> +7.5494119e+04 </wgt>
<wgt id='1211'> +7.3411107e+04 </wgt>
<wgt id='1212'> +7.1852304e+04 </wgt>
<wgt id='1213'> +7.3805611e+04 </wgt>
<wgt id='1214'> +7.4480968e+04 </wgt>
<wgt id='1215'> +7.3642790e+04 </wgt>
<wgt id='1216'> +7.3435989e+04 </wgt>
<wgt id='1217'> +7.3529870e+04 </wgt>
<wgt id='1218'> +7.4014909e+04 </wgt>
<wgt id='1219'> +7.4563837e+04 </wgt>
<wgt id='1220'> +7.4633656e+04 </wgt>
<wgt id='1221'> +7.5258846e+04 </wgt>
<wgt id='1222'> +7.5197260e+04 </wgt>
<wgt id='1223'> +7.2976307e+04 </wgt>
<wgt id='1224'> +7.2957998e+04 </wgt>
<wgt id='1225'> +7.3111006e+04 </wgt>
<wgt id='1226'> +7.2932697e+04 </wgt>
<wgt id='1227'> +7.3375244e+04 </wgt>
<wgt id='1228'> +7.3041371e+04 </wgt>
<wgt id='1229'> +7.2709552e+04 </wgt>
<wgt id='1230'> +7.3085861e+04 </wgt>
<wgt id='1231'> +7.2914747e+04 </wgt>
<wgt id='1232'> +7.3138899e+04 </wgt>
<wgt id='1233'> +7.2396649e+04 </wgt>
<wgt id='1234'> +7.2856344e+04 </wgt>
<wgt id='1235'> +7.3133451e+04 </wgt>
<wgt id='1236'> +7.3128647e+04 </wgt>
<wgt id='1237'> +7.3244940e+04 </wgt>
<wgt id='1238'> +7.2475900e+04 </wgt>
<wgt id='1239'> +7.3415237e+04 </wgt>
<wgt id='1240'> +7.2745627e+04 </wgt>
<wgt id='1241'> +7.3244700e+04 </wgt>
<wgt id='1242'> +7.2985028e+04 </wgt>
<wgt id='1243'> +7.2483749e+04 </wgt>
<wgt id='1244'> +7.3543441e+04 </wgt>
<wgt id='1245'> +7.3061098e+04 </wgt>
<wgt id='1246'> +7.2966087e+04 </wgt>
<wgt id='1247'> +7.3456749e+04 </wgt>
<wgt id='1248'> +7.2511430e+04 </wgt>
<wgt id='1249'> +7.3002135e+04 </wgt>
<wgt id='1250'> +7.2908452e+04 </wgt>
<wgt id='1251'> +7.2827745e+04 </wgt>
<wgt id='1252'> +7.3764918e+04 </wgt>
<wgt id='1253'> +7.3080883e+04 </wgt>
<wgt id='1254'> +7.2499268e+04 </wgt>
<wgt id='1255'> +7.3125596e+04 </wgt>
<wgt id='1256'> +7.2916253e+04 </wgt>
<wgt id='1257'> +7.3012864e+04 </wgt>
<wgt id='1258'> +7.3138396e+04 </wgt>
<wgt id='1259'> +7.3035399e+04 </wgt>
<wgt id='1260'> +7.2792471e+04 </wgt>
<wgt id='1261'> +7.2933439e+04 </wgt>
<wgt id='1262'> +7.2986388e+04 </wgt>
<wgt id='1263'> +7.2947736e+04 </wgt>
<wgt id='1264'> +7.2994539e+04 </wgt>
<wgt id='1265'> +7.2840545e+04 </wgt>
<wgt id='1266'> +7.2756980e+04 </wgt>
<wgt id='1267'> +7.2926899e+04 </wgt>
<wgt id='1268'> +7.2878638e+04 </wgt>
<wgt id='1269'> +7.3108897e+04 </wgt>
<wgt id='1270'> +7.3046147e+04 </wgt>
<wgt id='1271'> +7.3030143e+04 </wgt>
<wgt id='1272'> +7.3139438e+04 </wgt>
<wgt id='1273'> +7.3030870e+04 </wgt>
<wgt id='1274'> +7.2864306e+04 </wgt>
<wgt id='1275'> +7.2805810e+04 </wgt>
<wgt id='1276'> +7.2909558e+04 </wgt>
<wgt id='1277'> +7.2991170e+04 </wgt>
<wgt id='1278'> +7.3072825e+04 </wgt>
<wgt id='1279'> +7.3063190e+04 </wgt>
<wgt id='1280'> +7.2939575e+04 </wgt>
<wgt id='1281'> +7.2964785e+04 </wgt>
<wgt id='1282'> +7.2931326e+04 </wgt>
<wgt id='1283'> +7.2916270e+04 </wgt>
<wgt id='1284'> +7.3014375e+04 </wgt>
<wgt id='1285'> +7.3134980e+04 </wgt>
<wgt id='1286'> +7.3057648e+04 </wgt>
<wgt id='1287'> +7.2974581e+04 </wgt>
<wgt id='1288'> +7.2983259e+04 </wgt>
<wgt id='1289'> +7.2966231e+04 </wgt>
<wgt id='1290'> +7.2959198e+04 </wgt>
<wgt id='1291'> +7.2936490e+04 </wgt>
<wgt id='1292'> +7.2881664e+04 </wgt>
<wgt id='1293'> +7.3012775e+04 </wgt>
<wgt id='1294'> +7.3022778e+04 </wgt>
<wgt id='1295'> +7.3116810e+04 </wgt>
<wgt id='1296'> +7.2933980e+04 </wgt>
<wgt id='1297'> +7.2995322e+04 </wgt>
<wgt id='1298'> +7.3000362e+04 </wgt>
<wgt id='1299'> +7.2913523e+04 </wgt>
<wgt id='1300'> +7.3021456e+04 </wgt>
<wgt id='1301'> +7.2912261e+04 </wgt>
<wgt id='1302'> +7.3006850e+04 </wgt>
<wgt id='1303'> +7.2918206e+04 </wgt>
<wgt id='1304'> +7.2863028e+04 </wgt>
<wgt id='1305'> +7.2993956e+04 </wgt>
<wgt id='1306'> +7.2939394e+04 </wgt>
<wgt id='1307'> +7.2996211e+04 </wgt>
<wgt id='1308'> +7.2981094e+04 </wgt>
<wgt id='1309'> +7.2929997e+04 </wgt>
<wgt id='1310'> +7.2917997e+04 </wgt>
<wgt id='1311'> +7.3004238e+04 </wgt>
<wgt id='1312'> +7.3030407e+04 </wgt>
<wgt id='1313'> +7.2973482e+04 </wgt>
<wgt id='1314'> +7.2919590e+04 </wgt>
<wgt id='1315'> +7.3014492e+04 </wgt>
<wgt id='1316'> +7.2963805e+04 </wgt>
<wgt id='1317'> +7.3031601e+04 </wgt>
<wgt id='1318'> +7.2939818e+04 </wgt>
<wgt id='1319'> +7.2948923e+04 </wgt>
<wgt id='1320'> +7.2934053e+04 </wgt>
<wgt id='1321'> +7.3010728e+04 </wgt>
<wgt id='1322'> +7.2954112e+04 </wgt>
<wgt id='1323'> +7.3001523e+04 </wgt>
<wgt id='1324'> +7.2661936e+04 </wgt>
<wgt id='1325'> +7.3514528e+04 </wgt>
<wgt id='1326'> +7.1686094e+04 </wgt>
<wgt id='1327'> +6.7362415e+04 </wgt>
<wgt id='1328'> +7.4470612e+04 </wgt>
<wgt id='1329'> +7.3393936e+04 </wgt>
<wgt id='1330'> +7.5917822e+04 </wgt>
<wgt id='1331'> +7.3868824e+04 </wgt>
<wgt id='1332'> +7.5634652e+04 </wgt>
<wgt id='1333'> +7.4867052e+04 </wgt>
<wgt id='1334'> +7.3817236e+04 </wgt>
<wgt id='1335'> +7.2893286e+04 </wgt>
<wgt id='1336'> +7.5144231e+04 </wgt>
<wgt id='1337'> +7.4811858e+04 </wgt>
<wgt id='1338'> +7.4353717e+04 </wgt>
<wgt id='1339'> +7.3959485e+04 </wgt>
<wgt id='1340'> +7.2788765e+04 </wgt>
<wgt id='1341'> +7.3085517e+04 </wgt>
<wgt id='1342'> +7.6014767e+04 </wgt>
<wgt id='1343'> +7.5233072e+04 </wgt>
<wgt id='1344'> +7.4984536e+04 </wgt>
<wgt id='1345'> +7.5147395e+04 </wgt>
<wgt id='1346'> +7.5208640e+04 </wgt>
<wgt id='1347'> +7.5745570e+04 </wgt>
<wgt id='1348'> +7.1335213e+04 </wgt>
<wgt id='1349'> +7.4568471e+04 </wgt>
<wgt id='1350'> +7.5611228e+04 </wgt>
<wgt id='1351'> +7.3879039e+04 </wgt>
<wgt id='1352'> +7.5800244e+04 </wgt>
<wgt id='1353'> +7.7350854e+04 </wgt>
<wgt id='1354'> +7.4556001e+04 </wgt>
<wgt id='1355'> +7.4768689e+04 </wgt>
<wgt id='1356'> +7.4998393e+04 </wgt>
<wgt id='1357'> +7.3685832e+04 </wgt>
<wgt id='1358'> +7.5498140e+04 </wgt>
<wgt id='1359'> +7.3823178e+04 </wgt>
<wgt id='1360'> +7.6791221e+04 </wgt>
<wgt id='1361'> +7.7046507e+04 </wgt>
<wgt id='1362'> +7.5960092e+04 </wgt>
<wgt id='1363'> +7.3758755e+04 </wgt>
<wgt id='1364'> +7.4663188e+04 </wgt>
<wgt id='1365'> +7.4192991e+04 </wgt>
<wgt id='1366'> +7.4488479e+04 </wgt>
<wgt id='1367'> +7.6454321e+04 </wgt>
<wgt id='1368'> +7.4386579e+04 </wgt>
<wgt id='1369'> +7.3631396e+04 </wgt>
<wgt id='1370'> +7.1894524e+04 </wgt>
<wgt id='1371'> +7.4560198e+04 </wgt>
<wgt id='1372'> +7.6847582e+04 </wgt>
<wgt id='1373'> +7.3724384e+04 </wgt>
<wgt id='1374'> +7.4673633e+04 </wgt>
<wgt id='1375'> +7.4881254e+04 </wgt>
<wgt id='1376'> +7.4261033e+04 </wgt>
<wgt id='1377'> +7.5436247e+04 </wgt>
<wgt id='1378'> +7.4332933e+04 </wgt>
<wgt id='1379'> +7.4480879e+04 </wgt>
<wgt id='1380'> +7.5497043e+04 </wgt>
<wgt id='1381'> +7.4458603e+04 </wgt>
<wgt id='1382'> +7.1981159e+04 </wgt>
<wgt id='1383'> +7.3796146e+04 </wgt>
<wgt id='1384'> +7.4774932e+04 </wgt>
<wgt id='1385'> +7.0181479e+04 </wgt>
<wgt id='1386'> +7.5612879e+04 </wgt>
<wgt id='1387'> +7.3367449e+04 </wgt>
<wgt id='1388'> +7.4571705e+04 </wgt>
<wgt id='1389'> +7.4858894e+04 </wgt>
<wgt id='1390'> +7.0935103e+04 </wgt>
<wgt id='1391'> +7.3329267e+04 </wgt>
<wgt id='1392'> +7.3246494e+04 </wgt>
<wgt id='1393'> +7.1805810e+04 </wgt>
<wgt id='1394'> +7.4192991e+04 </wgt>
<wgt id='1395'> +7.4865332e+04 </wgt>
<wgt id='1396'> +7.6508485e+04 </wgt>
<wgt id='1397'> +7.5415050e+04 </wgt>
<wgt id='1398'> +7.5076117e+04 </wgt>
<wgt id='1399'> +7.4376627e+04 </wgt>
<wgt id='1400'> +7.5946994e+04 </wgt>
<wgt id='1401'> +7.3832621e+04 </wgt>
<wgt id='1402'> +7.5484094e+04 </wgt>
<wgt id='1403'> +7.6143738e+04 </wgt>
<wgt id='1404'> +7.5369084e+04 </wgt>
<wgt id='1405'> +7.2458320e+04 </wgt>
<wgt id='1406'> +7.4599069e+04 </wgt>
<wgt id='1407'> +7.6286200e+04 </wgt>
<wgt id='1408'> +7.5185285e+04 </wgt>
<wgt id='1409'> +7.3296039e+04 </wgt>
<wgt id='1410'> +7.5065955e+04 </wgt>
<wgt id='1411'> +7.4701853e+04 </wgt>
<wgt id='1412'> +7.5310771e+04 </wgt>
<wgt id='1413'> +7.4952386e+04 </wgt>
<wgt id='1414'> +7.0691605e+04 </wgt>
<wgt id='1415'> +7.3022954e+04 </wgt>
<wgt id='1416'> +7.3171048e+04 </wgt>
<wgt id='1417'> +7.3805861e+04 </wgt>
<wgt id='1418'> +7.6624754e+04 </wgt>
<wgt id='1419'> +7.4020567e+04 </wgt>
<wgt id='1420'> +7.1579985e+04 </wgt>
<wgt id='1421'> +7.5226210e+04 </wgt>
<wgt id='1422'> +7.4045448e+04 </wgt>
<wgt id='1423'> +7.3989992e+04 </wgt>
<wgt id='1424'> +7.3206598e+04 </wgt>
<wgt id='1425'> +7.4794946e+04 </wgt>
<wgt id='1426'> +7.4695603e+04 </wgt>
<wgt id='1427'> +7.5052295e+04 </wgt>
<wgt id='1428'> +7.5893312e+04 </wgt>
<wgt id='1429'> +7.4482912e+04 </wgt>
<wgt id='1430'> +7.4220541e+04 </wgt>
<wgt id='1431'> +7.4412578e+04 </wgt>
<wgt id='1432'> +7.4590771e+04 </wgt>
<wgt id='1433'> +7.4254616e+04 </wgt>
<wgt id='1434'> +7.4375562e+04 </wgt>
<wgt id='1435'> +7.4206877e+04 </wgt>
<wgt id='1436'> +7.3723789e+04 </wgt>
<wgt id='1437'> +7.4696129e+04 </wgt>
<wgt id='1438'> +7.4409048e+04 </wgt>
<wgt id='1439'> +7.3640676e+04 </wgt>
<wgt id='1440'> +7.4262578e+04 </wgt>
<wgt id='1441'> +7.4094920e+04 </wgt>
<wgt id='1442'> +7.4283314e+04 </wgt>
<wgt id='1443'> +7.4221629e+04 </wgt>
<wgt id='1444'> +7.4135297e+04 </wgt>
<wgt id='1445'> +7.4203526e+04 </wgt>
<wgt id='1446'> +7.4292475e+04 </wgt>
<wgt id='1447'> +7.4308623e+04 </wgt>
<wgt id='1448'> +7.4466735e+04 </wgt>
<wgt id='1449'> +7.4456536e+04 </wgt>
<wgt id='1450'> +7.4389774e+04 </wgt>
<wgt id='1451'> +7.4355590e+04 </wgt>
<wgt id='1452'> +7.4124342e+04 </wgt>
<wgt id='1453'> +7.4320128e+04 </wgt>
<wgt id='1454'> +7.4454465e+04 </wgt>
<wgt id='1455'> +7.4532620e+04 </wgt>
<wgt id='1456'> +7.4452487e+04 </wgt>
<wgt id='1457'> +7.4273933e+04 </wgt>
<wgt id='1458'> +7.4379372e+04 </wgt>
<wgt id='1459'> +7.4472237e+04 </wgt>
<wgt id='1460'> +7.4415273e+04 </wgt>
<wgt id='1461'> +7.4437975e+04 </wgt>
<wgt id='1462'> +7.4460920e+04 </wgt>
<wgt id='1463'> +7.4361425e+04 </wgt>
<wgt id='1464'> +7.4396481e+04 </wgt>
<wgt id='1465'> +7.4377233e+04 </wgt>
<wgt id='1466'> +7.4343050e+04 </wgt>
<wgt id='1467'> +7.4447706e+04 </wgt>
<wgt id='1468'> +7.4471702e+04 </wgt>
<wgt id='1469'> +7.4410673e+04 </wgt>
<wgt id='1470'> +7.4423822e+04 </wgt>
<wgt id='1471'> +7.4401015e+04 </wgt>
<wgt id='1472'> +7.4462461e+04 </wgt>
<wgt id='1473'> +7.4400565e+04 </wgt>
<wgt id='1474'> +7.4393357e+04 </wgt>
<wgt id='1475'> +7.4415251e+04 </wgt>
<wgt id='1476'> +7.4404802e+04 </wgt>
<wgt id='1477'> +7.4399221e+04 </wgt>
<wgt id='1478'> +7.4396207e+04 </wgt>
<wgt id='1479'> +7.4387151e+04 </wgt>
<wgt id='1480'> +7.4380250e+04 </wgt>
<wgt id='1481'> +7.4436234e+04 </wgt>
<wgt id='1482'> +7.4482912e+04 </wgt>
<wgt id='1483'> +7.4220541e+04 </wgt>
<wgt id='1484'> +7.4474204e+04 </wgt>
<wgt id='1485'> +7.5075804e+04 </wgt>
<wgt id='1486'> +7.4979107e+04 </wgt>
<wgt id='1487'> +7.4351642e+04 </wgt>
<wgt id='1488'> +7.4913228e+04 </wgt>
<wgt id='1489'> +7.4049642e+04 </wgt>
<wgt id='1490'> +7.2737492e+04 </wgt>
<wgt id='1491'> +7.3339974e+04 </wgt>
<wgt id='1492'> +7.3402857e+04 </wgt>
<wgt id='1493'> +7.5300401e+04 </wgt>
<wgt id='1494'> +7.4029638e+04 </wgt>
<wgt id='1495'> +7.2716797e+04 </wgt>
<wgt id='1496'> +7.3127970e+04 </wgt>
<wgt id='1497'> +7.2451791e+04 </wgt>
<wgt id='1498'> +7.5818989e+04 </wgt>
<wgt id='1499'> +7.4493541e+04 </wgt>
<wgt id='1500'> +7.2559549e+04 </wgt>
<wgt id='1501'> +7.3348612e+04 </wgt>
<wgt id='1502'> +7.5009810e+04 </wgt>
<wgt id='1503'> +7.3137429e+04 </wgt>
<wgt id='1504'> +7.4002140e+04 </wgt>
<wgt id='1505'> +7.4630922e+04 </wgt>
<wgt id='1506'> +7.4381004e+04 </wgt>
<wgt id='1507'> +7.4267034e+04 </wgt>
<wgt id='1508'> +7.1949178e+04 </wgt>
<wgt id='1509'> +7.6227634e+04 </wgt>
<wgt id='1510'> +7.6433909e+04 </wgt>
<wgt id='1511'> +7.5879801e+04 </wgt>
<wgt id='1512'> +7.4216143e+04 </wgt>
<wgt id='1513'> +7.2791594e+04 </wgt>
<wgt id='1514'> +7.4355864e+04 </wgt>
<wgt id='1515'> +7.3944859e+04 </wgt>
<wgt id='1516'> +7.4038024e+04 </wgt>
<wgt id='1517'> +7.4987297e+04 </wgt>
<wgt id='1518'> +7.4192374e+04 </wgt>
<wgt id='1519'> +7.3975722e+04 </wgt>
<wgt id='1520'> +7.5991425e+04 </wgt>
<wgt id='1521'> +7.4360071e+04 </wgt>
<wgt id='1522'> +7.4402856e+04 </wgt>
<wgt id='1523'> +7.4130055e+04 </wgt>
<wgt id='1524'> +7.5610117e+04 </wgt>
<wgt id='1525'> +7.4613004e+04 </wgt>
<wgt id='1526'> +7.3974106e+04 </wgt>
<wgt id='1527'> +7.4679012e+04 </wgt>
<wgt id='1528'> +7.4897885e+04 </wgt>
<wgt id='1529'> +7.4536727e+04 </wgt>
<wgt id='1530'> +7.3310115e+04 </wgt>
<wgt id='1531'> +7.5425784e+04 </wgt>
<wgt id='1532'> +7.3330063e+04 </wgt>
<wgt id='1533'> +7.6499778e+04 </wgt>
<wgt id='1534'> +7.4165925e+04 </wgt>
<wgt id='1535'> +7.4366999e+04 </wgt>
<wgt id='1536'> +7.4474296e+04 </wgt>
<wgt id='1537'> +7.5920105e+04 </wgt>
<wgt id='1538'> +7.4623924e+04 </wgt>
<wgt id='1539'> +7.4949842e+04 </wgt>
<wgt id='1540'> +7.4725290e+04 </wgt>
<wgt id='1541'> +7.5341367e+04 </wgt>
<wgt id='1542'> +7.4209741e+04 </wgt>
<wgt id='1543'> +7.5159847e+04 </wgt>
<wgt id='1544'> +7.4701097e+04 </wgt>
<wgt id='1545'> +7.5346549e+04 </wgt>
<wgt id='1546'> +7.4029258e+04 </wgt>
<wgt id='1547'> +7.5177439e+04 </wgt>
<wgt id='1548'> +7.4418540e+04 </wgt>
<wgt id='1549'> +7.5252948e+04 </wgt>
<wgt id='1550'> +7.5489425e+04 </wgt>
<wgt id='1551'> +7.5334753e+04 </wgt>
<wgt id='1552'> +7.5124435e+04 </wgt>
<wgt id='1553'> +7.5473460e+04 </wgt>
<wgt id='1554'> +7.5156874e+04 </wgt>
<wgt id='1555'> +7.3530561e+04 </wgt>
<wgt id='1556'> +7.3021277e+04 </wgt>
<wgt id='1557'> +7.3850908e+04 </wgt>
<wgt id='1558'> +7.4615859e+04 </wgt>
<wgt id='1559'> +7.5988107e+04 </wgt>
<wgt id='1560'> +7.5864067e+04 </wgt>
<wgt id='1561'> +7.6457702e+04 </wgt>
<wgt id='1562'> +7.4603403e+04 </wgt>
<wgt id='1563'> +7.5369217e+04 </wgt>
<wgt id='1564'> +7.5311734e+04 </wgt>
<wgt id='1565'> +7.5749311e+04 </wgt>
<wgt id='1566'> +7.2889066e+04 </wgt>
<wgt id='1567'> +7.4444239e+04 </wgt>
<wgt id='1568'> +7.3819902e+04 </wgt>
<wgt id='1569'> +7.4765892e+04 </wgt>
<wgt id='1570'> +7.4679865e+04 </wgt>
<wgt id='1571'> +7.4710284e+04 </wgt>
<wgt id='1572'> +7.4132500e+04 </wgt>
<wgt id='1573'> +7.4547886e+04 </wgt>
<wgt id='1574'> +7.2196204e+04 </wgt>
<wgt id='1575'> +7.3965534e+04 </wgt>
<wgt id='1576'> +7.5295457e+04 </wgt>
<wgt id='1577'> +7.2981632e+04 </wgt>
<wgt id='1578'> +7.4469471e+04 </wgt>
<wgt id='1579'> +7.2453139e+04 </wgt>
<wgt id='1580'> +7.5260708e+04 </wgt>
<wgt id='1581'> +7.6177544e+04 </wgt>
<wgt id='1582'> +7.5914964e+04 </wgt>
<wgt id='1583'> +7.4723501e+04 </wgt>
<wgt id='1584'> +7.1164224e+04 </wgt>
<wgt id='1585'> +7.2204464e+04 </wgt>
<wgt id='1586'> +6.6357813e+04 </wgt>
<wgt id='1587'> +7.4743436e+04 </wgt>
<wgt id='1588'> +7.4482912e+04 </wgt>
<wgt id='1589'> +7.4290744e+04 </wgt>
<wgt id='1590'> +7.4003492e+04 </wgt>
<wgt id='1591'> +7.4220541e+04 </wgt>
<wgt id='1592'> +7.3795436e+04 </wgt>
<wgt id='1593'> +7.4229537e+04 </wgt>
<wgt id='1594'> +7.3218843e+04 </wgt>
<wgt id='1595'> +7.3496144e+04 </wgt>
<wgt id='1596'> +7.4223856e+04 </wgt>
<wgt id='1597'> +7.4285385e+04 </wgt>
<wgt id='1598'> +7.3091756e+04 </wgt>
<wgt id='1599'> +7.4813050e+04 </wgt>
<wgt id='1600'> +7.2362694e+04 </wgt>
<wgt id='1601'> +7.5791110e+04 </wgt>
<wgt id='1602'> +7.1499147e+04 </wgt>
<wgt id='1603'> +7.6600196e+04 </wgt>
<wgt id='1604'> +7.4731139e+04 </wgt>
<wgt id='1605'> +7.4508497e+04 </wgt>
<wgt id='1606'> +7.2980483e+04 </wgt>
<wgt id='1607'> +7.4841951e+04 </wgt>
<wgt id='1608'> +7.3542709e+04 </wgt>
<wgt id='1609'> +7.3811768e+04 </wgt>
<wgt id='1610'> +7.4489704e+04 </wgt>
<wgt id='1611'> +7.3660802e+04 </wgt>
<wgt id='1612'> +7.5117064e+04 </wgt>
<wgt id='1613'> +7.1932879e+04 </wgt>
<wgt id='1614'> +7.4667675e+04 </wgt>
<wgt id='1615'> +7.3520556e+04 </wgt>
<wgt id='1616'> +7.4111594e+04 </wgt>
<wgt id='1617'> +7.3411911e+04 </wgt>
<wgt id='1618'> +7.4392593e+04 </wgt>
<wgt id='1619'> +7.3998214e+04 </wgt>
<wgt id='1620'> +7.3550461e+04 </wgt>
<wgt id='1621'> +7.4425952e+04 </wgt>
<wgt id='1622'> +7.3833370e+04 </wgt>
<wgt id='1623'> +7.3480689e+04 </wgt>
<wgt id='1624'> +7.4318016e+04 </wgt>
<wgt id='1625'> +7.3078600e+04 </wgt>
<wgt id='1626'> +7.3244159e+04 </wgt>
<wgt id='1627'> +7.4497656e+04 </wgt>
<wgt id='1628'> +7.4937162e+04 </wgt>
<wgt id='1629'> +7.3730350e+04 </wgt>
<wgt id='1630'> +7.4321749e+04 </wgt>
<wgt id='1631'> +7.3404044e+04 </wgt>
<wgt id='1632'> +7.4905820e+04 </wgt>
<wgt id='1633'> +7.2949593e+04 </wgt>
<wgt id='1634'> +7.4868773e+04 </wgt>
<wgt id='1635'> +7.3359715e+04 </wgt>
<wgt id='1636'> +7.3318967e+04 </wgt>
<wgt id='1637'> +7.5011150e+04 </wgt>
<wgt id='1638'> +7.3633917e+04 </wgt>
<wgt id='1639'> +7.4469577e+04 </wgt>
<wgt id='1640'> +7.5047903e+04 </wgt>
<wgt id='1641'> +7.3014923e+04 </wgt>
<wgt id='1642'> +7.3014195e+04 </wgt>
<wgt id='1643'> +7.5070937e+04 </wgt>
<wgt id='1644'> +7.5481820e+04 </wgt>
<wgt id='1645'> +7.2034708e+04 </wgt>
<wgt id='1646'> +7.4269529e+04 </wgt>
<wgt id='1647'> +7.4470886e+04 </wgt>
<wgt id='1648'> +7.4821087e+04 </wgt>
<wgt id='1649'> +7.3766367e+04 </wgt>
<wgt id='1650'> +7.4306935e+04 </wgt>
<wgt id='1651'> +7.4183976e+04 </wgt>
<wgt id='1652'> +7.3778095e+04 </wgt>
<wgt id='1653'> +7.3994616e+04 </wgt>
<wgt id='1654'> +7.4489224e+04 </wgt>
<wgt id='1655'> +7.4776624e+04 </wgt>
<wgt id='1656'> +7.5452898e+04 </wgt>
<wgt id='1657'> +7.4782236e+04 </wgt>
<wgt id='1658'> +7.4594866e+04 </wgt>
<wgt id='1659'> +7.6530222e+04 </wgt>
<wgt id='1660'> +7.4768012e+04 </wgt>
<wgt id='1661'> +7.6542447e+04 </wgt>
<wgt id='1662'> +7.4055940e+04 </wgt>
<wgt id='1663'> +7.4181880e+04 </wgt>
<wgt id='1664'> +7.4960378e+04 </wgt>
<wgt id='1665'> +7.4624726e+04 </wgt>
<wgt id='1666'> +7.5326371e+04 </wgt>
<wgt id='1667'> +7.5271713e+04 </wgt>
<wgt id='1668'> +7.5467196e+04 </wgt>
<wgt id='1669'> +7.6484328e+04 </wgt>
<wgt id='1670'> +7.3609694e+04 </wgt>
<wgt id='1671'> +7.5811287e+04 </wgt>
<wgt id='1672'> +7.5143783e+04 </wgt>
<wgt id='1673'> +7.5017472e+04 </wgt>
<wgt id='1674'> +7.5756448e+04 </wgt>
<wgt id='1675'> +7.5644750e+04 </wgt>
<wgt id='1676'> +7.5415850e+04 </wgt>
<wgt id='1677'> +7.4845829e+04 </wgt>
<wgt id='1678'> +7.6155468e+04 </wgt>
<wgt id='1679'> +7.5008658e+04 </wgt>
<wgt id='1680'> +7.6536139e+04 </wgt>
<wgt id='1681'> +7.6151091e+04 </wgt>
<wgt id='1682'> +7.4056101e+04 </wgt>
<wgt id='1683'> +7.5439162e+04 </wgt>
<wgt id='1684'> +7.5330399e+04 </wgt>
<wgt id='1685'> +7.5295009e+04 </wgt>
<wgt id='1686'> +7.5053844e+04 </wgt>
<wgt id='1687'> +7.6447811e+04 </wgt>
<wgt id='1688'> +7.3756247e+04 </wgt>
<wgt id='1689'> +7.5825887e+04 </wgt>
<wgt id='1690'> +7.5283629e+04 </wgt>
<wgt id='1691'> +7.5780478e+04 </wgt>
<wgt id='1692'> +7.4572454e+04 </wgt>
<wgt id='1693'> +7.8129196e+04 </wgt>
<wgt id='1694'> +7.3475013e+04 </wgt>
<wgt id='1695'> +7.5300177e+04 </wgt>
<wgt id='1696'> +7.5136473e+04 </wgt>
<wgt id='1697'> +7.6017543e+04 </wgt>
<wgt id='1698'> +7.4820893e+04 </wgt>
<wgt id='1699'> +7.4562399e+04 </wgt>
<wgt id='1700'> +7.6253012e+04 </wgt>
<wgt id='1701'> +7.3837976e+04 </wgt>
<wgt id='1702'> +7.7254453e+04 </wgt>
<wgt id='1703'> +7.6030509e+04 </wgt>
<wgt id='1704'> +7.5393900e+04 </wgt>
<wgt id='1705'> +7.5316451e+04 </wgt>
<wgt id='1706'> +7.5284801e+04 </wgt>
<wgt id='1707'> +7.3856482e+04 </wgt>
<wgt id='1708'> +7.6673730e+04 </wgt>
<wgt id='1709'> +7.5432683e+04 </wgt>
<wgt id='1710'> +7.5636226e+04 </wgt>
<wgt id='1711'> +7.4842027e+04 </wgt>
<wgt id='1712'> +7.5163400e+04 </wgt>
<wgt id='1713'> +7.4951263e+04 </wgt>
<wgt id='1714'> +7.5581302e+04 </wgt>
<wgt id='1715'> +7.2578031e+04 </wgt>
<wgt id='1716'> +7.5651583e+04 </wgt>
<wgt id='1717'> +6.9654061e+04 </wgt>
<wgt id='1718'> +6.9696172e+04 </wgt>
<wgt id='1719'> +6.9598505e+04 </wgt>
<wgt id='1720'> +6.9197846e+04 </wgt>
<wgt id='1721'> +7.0072120e+04 </wgt>
<wgt id='1722'> +6.9374387e+04 </wgt>
<wgt id='1723'> +7.0113439e+04 </wgt>
<wgt id='1724'> +7.0012030e+04 </wgt>
<wgt id='1725'> +6.9363345e+04 </wgt>
<wgt id='1726'> +6.9565855e+04 </wgt>
<wgt id='1727'> +6.9744730e+04 </wgt>
<wgt id='1728'> +6.8971989e+04 </wgt>
<wgt id='1729'> +7.0317754e+04 </wgt>
<wgt id='1730'> +6.9903823e+04 </wgt>
<wgt id='1731'> +6.9476496e+04 </wgt>
<wgt id='1732'> +7.0036383e+04 </wgt>
<wgt id='1733'> +7.0036383e+04 </wgt>
<wgt id='1734'> +6.9552472e+04 </wgt>
<wgt id='1735'> +6.9720423e+04 </wgt>
<wgt id='1736'> +6.9356226e+04 </wgt>
<wgt id='1737'> +7.0072246e+04 </wgt>
<wgt id='1738'> +6.9797054e+04 </wgt>
<wgt id='1739'> +6.9364402e+04 </wgt>
<wgt id='1740'> +6.9580170e+04 </wgt>
<wgt id='1741'> +6.9829661e+04 </wgt>
<wgt id='1742'> +6.9575081e+04 </wgt>
<wgt id='1743'> +6.9753557e+04 </wgt>
<wgt id='1744'> +6.9796235e+04 </wgt>
<wgt id='1745'> +6.9265484e+04 </wgt>
<wgt id='1746'> +6.9539288e+04 </wgt>
<wgt id='1747'> +6.9696827e+04 </wgt>
<wgt id='1748'> +6.9857611e+04 </wgt>
<wgt id='1749'> +6.8972347e+04 </wgt>
<wgt id='1750'> +6.9873425e+04 </wgt>
<wgt id='1751'> +6.9420026e+04 </wgt>
<wgt id='1752'> +6.9652365e+04 </wgt>
<wgt id='1753'> +6.9665837e+04 </wgt>
<wgt id='1754'> +6.9891343e+04 </wgt>
<wgt id='1755'> +6.9521207e+04 </wgt>
<wgt id='1756'> +6.9409053e+04 </wgt>
<wgt id='1757'> +7.0275879e+04 </wgt>
<wgt id='1758'> +6.9856181e+04 </wgt>
<wgt id='1759'> +6.9408721e+04 </wgt>
<wgt id='1760'> +7.0051944e+04 </wgt>
<wgt id='1761'> +6.9296172e+04 </wgt>
<wgt id='1762'> +6.9579439e+04 </wgt>
<wgt id='1763'> +6.9480272e+04 </wgt>
<wgt id='1764'> +6.9543482e+04 </wgt>
<wgt id='1765'> +7.0157808e+04 </wgt>
<wgt id='1766'> +6.9611160e+04 </wgt>
<wgt id='1767'> +6.9724395e+04 </wgt>
<wgt id='1768'> +6.9596575e+04 </wgt>
<wgt id='1769'> +6.9679984e+04 </wgt>
<wgt id='1770'> +6.9348374e+04 </wgt>
<wgt id='1771'> +6.9730413e+04 </wgt>
<wgt id='1772'> +6.9911616e+04 </wgt>
<wgt id='1773'> +6.9391144e+04 </wgt>
<wgt id='1774'> +6.8874083e+04 </wgt>
<wgt id='1775'> +7.0162648e+04 </wgt>
<wgt id='1776'> +6.9314244e+04 </wgt>
<wgt id='1777'> +6.9816369e+04 </wgt>
<wgt id='1778'> +6.9187380e+04 </wgt>
<wgt id='1779'> +6.9578553e+04 </wgt>
<wgt id='1780'> +7.0511388e+04 </wgt>
<wgt id='1781'> +6.9915954e+04 </wgt>
<wgt id='1782'> +6.9654061e+04 </wgt>
<wgt id='1783'> +6.9701094e+04 </wgt>
<wgt id='1784'> +7.2069674e+04 </wgt>
<wgt id='1785'> +7.2282204e+04 </wgt>
<wgt id='1786'> +6.9792516e+04 </wgt>
<wgt id='1787'> +7.2115361e+04 </wgt>
<wgt id='1788'> +7.2143079e+04 </wgt>
<wgt id='1789'> +7.2145920e+04 </wgt>
<wgt id='1790'> +7.2186766e+04 </wgt>
<wgt id='1791'> +7.2241570e+04 </wgt>
<wgt id='1792'> +7.1175331e+04 </wgt>
<wgt id='1793'> +7.2354602e+04 </wgt>
<wgt id='1794'> +7.2265152e+04 </wgt>
<wgt id='1795'> +7.1923606e+04 </wgt>
<wgt id='1796'> +7.2155412e+04 </wgt>
<wgt id='1797'> +7.2254151e+04 </wgt>
<wgt id='1798'> +7.2316322e+04 </wgt>
<wgt id='1799'> +7.2734441e+04 </wgt>
<wgt id='1800'> +7.2525897e+04 </wgt>
<wgt id='1801'> +7.2828927e+04 </wgt>
<wgt id='1802'> +7.2928211e+04 </wgt>
<wgt id='1803'> +7.2204284e+04 </wgt>
<wgt id='1804'> +7.2061335e+04 </wgt>
<wgt id='1805'> +7.1498783e+04 </wgt>
<wgt id='1806'> +7.2169510e+04 </wgt>
<wgt id='1807'> +7.2114899e+04 </wgt>
<wgt id='1808'> +7.2195850e+04 </wgt>
<wgt id='1809'> +7.1882281e+04 </wgt>
<wgt id='1810'> +7.2029611e+04 </wgt>
<wgt id='1811'> +7.2058309e+04 </wgt>
<wgt id='1812'> +7.1919786e+04 </wgt>
<wgt id='1813'> +7.1530695e+04 </wgt>
<wgt id='1814'> +7.2294809e+04 </wgt>
<wgt id='1815'> +7.1916086e+04 </wgt>
<wgt id='1816'> +7.2102719e+04 </wgt>
<wgt id='1817'> +7.2129291e+04 </wgt>
<wgt id='1818'> +7.2128209e+04 </wgt>
<wgt id='1819'> +7.2063603e+04 </wgt>
<wgt id='1820'> +7.2098276e+04 </wgt>
<wgt id='1821'> +7.1765255e+04 </wgt>
<wgt id='1822'> +7.1991491e+04 </wgt>
<wgt id='1823'> +7.2061123e+04 </wgt>
<wgt id='1824'> +7.2318211e+04 </wgt>
<wgt id='1825'> +7.1921842e+04 </wgt>
<wgt id='1826'> +7.2636455e+04 </wgt>
<wgt id='1827'> +7.3453272e+04 </wgt>
<wgt id='1828'> +7.3636746e+04 </wgt>
<wgt id='1829'> +7.3275353e+04 </wgt>
<wgt id='1830'> +7.3371766e+04 </wgt>
<wgt id='1831'> +7.3539385e+04 </wgt>
<wgt id='1832'> +7.3531564e+04 </wgt>
<wgt id='1833'> +7.3379652e+04 </wgt>
<wgt id='1834'> +7.3143806e+04 </wgt>
<wgt id='1835'> +7.3751560e+04 </wgt>
<wgt id='1836'> +7.3822115e+04 </wgt>
<wgt id='1837'> +7.3084234e+04 </wgt>
<wgt id='1838'> +7.3798507e+04 </wgt>
<wgt id='1839'> +7.3109358e+04 </wgt>
<wgt id='1840'> +7.3234134e+04 </wgt>
<wgt id='1841'> +7.3679880e+04 </wgt>
<wgt id='1842'> +7.3417052e+04 </wgt>
<wgt id='1843'> +7.3551169e+04 </wgt>
<wgt id='1844'> +7.3494427e+04 </wgt>
<wgt id='1845'> +7.3396771e+04 </wgt>
<wgt id='1846'> +7.3483125e+04 </wgt>
<wgt id='1847'> +7.3399815e+04 </wgt>
<wgt id='1848'> +7.3236048e+04 </wgt>
<wgt id='1849'> +7.3571018e+04 </wgt>
<wgt id='1850'> +7.3856808e+04 </wgt>
<wgt id='1851'> +7.3051572e+04 </wgt>
<wgt id='1852'> +7.4187989e+04 </wgt>
<wgt id='1853'> +7.2591801e+04 </wgt>
<wgt id='1854'> +7.4206419e+04 </wgt>
<wgt id='1855'> +7.2777279e+04 </wgt>
<wgt id='1856'> +7.1715942e+04 </wgt>
<wgt id='1857'> +7.1705072e+04 </wgt>
<wgt id='1858'> +7.1629986e+04 </wgt>
<wgt id='1859'> +7.1731882e+04 </wgt>
<wgt id='1860'> +7.1718028e+04 </wgt>
<wgt id='1861'> +7.1804955e+04 </wgt>
<wgt id='1862'> +7.1330560e+04 </wgt>
<wgt id='1863'> +7.1854025e+04 </wgt>
<wgt id='1864'> +7.1546747e+04 </wgt>
<wgt id='1865'> +7.1534545e+04 </wgt>
<wgt id='1866'> +7.1638401e+04 </wgt>
<wgt id='1867'> +7.1646877e+04 </wgt>
<wgt id='1868'> +7.1725420e+04 </wgt>
<wgt id='1869'> +7.1838393e+04 </wgt>
<wgt id='1870'> +7.1590151e+04 </wgt>
<wgt id='1871'> +7.1741915e+04 </wgt>
<wgt id='1872'> +7.1574036e+04 </wgt>
<wgt id='1873'> +7.1691545e+04 </wgt>
<wgt id='1874'> +7.1632795e+04 </wgt>
<wgt id='1875'> +7.1806328e+04 </wgt>
<wgt id='1876'> +7.1619384e+04 </wgt>
<wgt id='1877'> +7.1445704e+04 </wgt>
<wgt id='1878'> +7.1634187e+04 </wgt>
<wgt id='1879'> +7.1983212e+04 </wgt>
<wgt id='1880'> +7.1927000e+04 </wgt>
<wgt id='1881'> +7.1675263e+04 </wgt>
<wgt id='1882'> +7.1638338e+04 </wgt>
<wgt id='1883'> +7.1789119e+04 </wgt>
<wgt id='1884'> +7.1190219e+04 </wgt>
<wgt id='1885'> +7.1264198e+04 </wgt>
<wgt id='1886'> +7.9809470e+04 </wgt>
<wgt id='1887'> +7.8112915e+04 </wgt>
<wgt id='1888'> +6.4204444e+04 </wgt>
<wgt id='1889'> +6.9667600e+04 </wgt>
</rwgt>
</event>
<event npLO=" -1 " npNLO=" 0 ">
 5      1 +7.4519530e+04 3.07671990e+01 7.55820760e-03 1.20031700e-01
       -2 -1    0    0    0  501 +0.0000000000e+00 +0.0000000000e+00 +2.7201099634e+02 2.7201099634e+02 0.0000000000e+00 0.0000e+00 1.0000e+00
        1 -1    0    0  501    0 +0.0000000000e+00 +0.0000000000e+00 -5.8488959775e+00 5.8488959775e+00 0.0000000000e+00 0.0000e+00 -1.0000e+00
      -24  2    1    2    0    0 +0.0000000000e+00 +0.0000000000e+00 +2.6616210036e+02 2.7785989232e+02 7.9773780714e+01 0.0000e+00 0.0000e+00
       15  1    3    3    0    0 -3.0116938569e+01 +6.1654138470e+00 +4.4732415955e+01 5.4306436846e+01 1.7770000000e+00 0.0000e+00 -1.0000e+00
      -16  1    3    3    0    0 +3.0116938569e+01 -6.1654138470e+00 +2.2142968441e+02 2.2355345547e+02 0.0000000000e+00 0.0000e+00 1.0000e+00
#aMCatNLO 1  0  0  1  2 0.74671437E+02 0.00000000E+00 -9  5  0 0.00000000E+00 0.00000000E+00 0.00000000E+00 0.00000000E+00 0.00000000E+00
<rwgt>
<wgt id='1001'> +7.4519530e+04 </wgt>
<wgt id='1002'> +7.4591384e+04 </wgt>
<wgt id='1003'> +7.4429971e+04 </wgt>
<wgt id='1004'> +8.1965175e+04 </wgt>
<wgt id='1005'> +8.2109718e+04 </wgt>
<wgt id='1006'> +8.1785021e+04 </wgt>
<wgt id='1007'> +6.6120307e+04 </wgt>
<wgt id='1008'> +6.6132072e+04 </wgt>
<wgt id='1009'> +6.6105644e+04 </wgt>
<wgt id='1010'> +7.4519530e+04 </wgt>
<wgt id='1011'> +7.4367931e+04 </wgt>
<wgt id='1012'> +7.4572115e+04 </wgt>
<wgt id='1013'> +7.4324406e+04 </wgt>
<wgt id='1014'> +7.5004614e+04 </wgt>
<wgt id='1015'> +7.3574093e+04 </wgt>
<wgt id='1016'> +7.4729558e+04 </wgt>
<wgt id='1017'> +7.4194009e+04 </wgt>
<wgt id='1018'> +7.3990499e+04 </wgt>
<wgt id='1019'> +7.4685161e+04 </wgt>
<wgt id='1020'> +7.4136594e+04 </wgt>
<wgt id='1021'> +7.5008699e+04 </wgt>
<wgt id='1022'> +7.4676793e+04 </wgt>
<wgt id='1023'> +7.5377571e+04 </wgt>
<wgt id='1024'> +7.4236569e+04 </wgt>
<wgt id='1025'> +7.5763601e+04 </wgt>
<wgt id='1026'> +7.4110696e+04 </wgt>
<wgt id='1027'> +7.4473828e+04 </wgt>
<wgt id='1028'> +7.3864823e+04 </wgt>
<wgt id='1029'> +7.4917538e+04 </wgt>
<wgt id='1030'> +7.5017003e+04 </wgt>
<wgt id='1031'> +7.4119630e+04 </wgt>
<wgt id='1032'> +7.4640482e+04 </wgt>
<wgt id='1033'> +7.4234872e+04 </wgt>
<wgt id='1034'> +7.3987291e+04 </wgt>
<wgt id='1035'> +7.4640878e+04 </wgt>
<wgt id='1036'> +7.4460314e+04 </wgt>
<wgt id='1037'> +7.5209090e+04 </wgt>
<wgt id='1038'> +7.4509982e+04 </wgt>
<wgt id='1039'> +7.5063357e+04 </wgt>
<wgt id='1040'> +7.4551193e+04 </wgt>
<wgt id='1041'> +7.4969782e+04 </wgt>
<wgt id='1042'> +7.4478984e+04 </wgt>
<wgt id='1043'> +7.4403501e+04 </wgt>
<wgt id='1044'> +7.4539970e+04 </wgt>
<wgt id='1045'> +7.4233714e+04 </wgt>
<wgt id='1046'> +7.4439866e+04 </wgt>
<wgt id='1047'> +7.4629479e+04 </wgt>
<wgt id='1048'> +7.4746276e+04 </wgt>
<wgt id='1049'> +7.4460282e+04 </wgt>
<wgt id='1050'> +7.4246927e+04 </wgt>
<wgt id='1051'> +7.4089476e+04 </wgt>
<wgt id='1052'> +7.4386091e+04 </wgt>
<wgt id='1053'> +7.4668616e+04 </wgt>
<wgt id='1054'> +7.4490776e+04 </wgt>
<wgt id='1055'> +7.4662089e+04 </wgt>
<wgt id='1056'> +7.4782191e+04 </wgt>
<wgt id='1057'> +7.4467298e+04 </wgt>
<wgt id='1058'> +7.5009703e+04 </wgt>
<wgt id='1059'> +7.3970675e+04 </wgt>
<wgt id='1060'> +7.4689939e+04 </wgt>
<wgt id='1061'> +7.4666443e+04 </wgt>
<wgt id='1062'> +7.4384802e+04 </wgt>
<wgt id='1063'> +7.4394033e+04 </wgt>
<wgt id='1064'> +7.4436667e+04 </wgt>
<wgt id='1065'> +7.4711405e+04 </wgt>
<wgt id='1066'> +7.4660257e+04 </wgt>
<wgt id='1067'> +7.4682206e+04 </wgt>
<wgt id='1068'> +7.4553341e+04 </wgt>
<wgt id='1069'> +7.4540613e+04 </wgt>
<wgt id='1070'> +7.4741386e+04 </wgt>
<wgt id='1071'> +7.4599799e+04 </wgt>
<wgt id='1072'> +7.4428376e+04 </wgt>
<wgt id='1073'> +7.4257604e+04 </wgt>
<wgt id='1074'> +7.4476477e+04 </wgt>
<wgt id='1075'> +7.4576322e+04 </wgt>
<wgt id='1076'> +7.4723795e+04 </wgt>
<wgt id='1077'> +7.4743552e+04 </wgt>
<wgt id='1078'> +7.4679500e+04 </wgt>
<wgt id='1079'> +7.4317099e+04 </wgt>
<wgt id='1080'> +7.4645603e+04 </wgt>
<wgt id='1081'> +7.4393826e+04 </wgt>
<wgt id='1082'> +7.4420344e+04 </wgt>
<wgt id='1083'> +7.4570159e+04 </wgt>
<wgt id='1084'> +7.4513299e+04 </wgt>
<wgt id='1085'> +7.4554623e+04 </wgt>
<wgt id='1086'> +7.4546625e+04 </wgt>
<wgt id='1087'> +7.4605929e+04 </wgt>
<wgt id='1088'> +7.4609138e+04 </wgt>
<wgt id='1089'> +7.4387674e+04 </wgt>
<wgt id='1090'> +7.4502237e+04 </wgt>
<wgt id='1091'> +7.4533446e+04 </wgt>
<wgt id='1092'> +7.4573933e+04 </wgt>
<wgt id='1093'> +7.4555053e+04 </wgt>
<wgt id='1094'> +7.4664157e+04 </wgt>
<wgt id='1095'> +7.4499908e+04 </wgt>
<wgt id='1096'> +7.4431280e+04 </wgt>
<wgt id='1097'> +7.4577007e+04 </wgt>
<wgt id='1098'> +7.4445066e+04 </wgt>
<wgt id='1099'> +7.4562075e+04 </wgt>
<wgt id='1100'> +7.4396607e+04 </wgt>
<wgt id='1101'> +7.4503488e+04 </wgt>
<wgt id='1102'> +7.4460896e+04 </wgt>
<wgt id='1103'> +7.4635809e+04 </wgt>
<wgt id='1104'> +7.4600797e+04 </wgt>
<wgt id='1105'> +7.4581531e+04 </wgt>
<wgt id='1106'> +7.4613379e+04 </wgt>
<wgt id='1107'> +7.4423705e+04 </wgt>
<wgt id='1108'> +7.4521821e+04 </wgt>
<wgt id='1109'> +7.4568696e+04 </wgt>
<wgt id='1110'> +7.4519529e+04 </wgt>
<wgt id='1111'> +7.4988012e+04 </wgt>
<wgt id='1112'> +7.4621428e+04 </wgt>
<wgt id='1113'> +7.4519529e+04 </wgt>
<wgt id='1114'> +8.3544621e+04 </wgt>
<wgt id='1115'> +7.4640789e+04 </wgt>
<wgt id='1116'> +7.5434072e+04 </wgt>
<wgt id='1117'> +7.7091638e+04 </wgt>
<wgt id='1118'> +7.2528344e+04 </wgt>
<wgt id='1119'> +7.5861970e+04 </wgt>
<wgt id='1120'> +7.3166090e+04 </wgt>
<wgt id='1121'> +7.1027729e+04 </wgt>
<wgt id='1122'> +7.3420941e+04 </wgt>
<wgt id='1123'> +7.4689180e+04 </wgt>
<wgt id='1124'> +7.5233934e+04 </wgt>
<wgt id='1125'> +7.2755517e+04 </wgt>
<wgt id='1126'> +7.3011308e+04 </wgt>
<wgt id='1127'> +7.4329098e+04 </wgt>
<wgt id='1128'> +7.3590313e+04 </wgt>
<wgt id='1129'> +7.2193680e+04 </wgt>
<wgt id='1130'> +7.8944067e+04 </wgt>
<wgt id='1131'> +7.4292468e+04 </wgt>
<wgt id='1132'> +7.4034695e+04 </wgt>
<wgt id='1133'> +6.9550948e+04 </wgt>
<wgt id='1134'> +7.4530523e+04 </wgt>
<wgt id='1135'> +7.9130001e+04 </wgt>
<wgt id='1136'> +7.5472603e+04 </wgt>
<wgt id='1137'> +7.4007345e+04 </wgt>
<wgt id='1138'> +7.2379170e+04 </wgt>
<wgt id='1139'> +7.2517196e+04 </wgt>
<wgt id='1140'> +8.5524503e+04 </wgt>
<wgt id='1141'> +7.5404039e+04 </wgt>
<wgt id='1142'> +7.4069281e+04 </wgt>
<wgt id='1143'> +7.6747263e+04 </wgt>
<wgt id='1144'> +7.7258194e+04 </wgt>
<wgt id='1145'> +7.4573310e+04 </wgt>
<wgt id='1146'> +7.5853668e+04 </wgt>
<wgt id='1147'> +7.4690750e+04 </wgt>
<wgt id='1148'> +7.5670670e+04 </wgt>
<wgt id='1149'> +7.6172070e+04 </wgt>
<wgt id='1150'> +7.4735502e+04 </wgt>
<wgt id='1151'> +7.2800680e+04 </wgt>
<wgt id='1152'> +7.4115320e+04 </wgt>
<wgt id='1153'> +7.2488797e+04 </wgt>
<wgt id='1154'> +7.5746566e+04 </wgt>
<wgt id='1155'> +7.5351933e+04 </wgt>
<wgt id='1156'> +7.9553435e+04 </wgt>
<wgt id='1157'> +7.6847344e+04 </wgt>
<wgt id='1158'> +7.1268578e+04 </wgt>
<wgt id='1159'> +7.4860291e+04 </wgt>
<wgt id='1160'> +7.5956877e+04 </wgt>
<wgt id='1161'> +6.9894808e+04 </wgt>
<wgt id='1162'> +7.5618465e+04 </wgt>
<wgt id='1163'> +7.5657966e+04 </wgt>
<wgt id='1164'> +7.1847161e+04 </wgt>
<wgt id='1165'> +7.1919152e+04 </wgt>
<wgt id='1166'> +7.5212552e+04 </wgt>
<wgt id='1167'> +7.7010243e+04 </wgt>
<wgt id='1168'> +7.5257398e+04 </wgt>
<wgt id='1169'> +7.6514118e+04 </wgt>
<wgt id='1170'> +7.8206972e+04 </wgt>
<wgt id='1171'> +7.4267494e+04 </wgt>
<wgt id='1172'> +7.4024368e+04 </wgt>
<wgt id='1173'> +7.4843167e+04 </wgt>
<wgt id='1174'> +7.8198016e+04 </wgt>
<wgt id='1175'> +7.2729558e+04 </wgt>
<wgt id='1176'> +7.7315509e+04 </wgt>
<wgt id='1177'> +7.0382779e+04 </wgt>
<wgt id='1178'> +7.4477982e+04 </wgt>
<wgt id='1179'> +7.0185432e+04 </wgt>
<wgt id='1180'> +7.5120584e+04 </wgt>
<wgt id='1181'> +7.4816645e+04 </wgt>
<wgt id='1182'> +7.4971122e+04 </wgt>
<wgt id='1183'> +7.4559695e+04 </wgt>
<wgt id='1184'> +7.3609622e+04 </wgt>
<wgt id='1185'> +6.8698808e+04 </wgt>
<wgt id='1186'> +6.7184887e+04 </wgt>
<wgt id='1187'> +7.0761034e+04 </wgt>
<wgt id='1188'> +7.0969194e+04 </wgt>
<wgt id='1189'> +7.7243326e+04 </wgt>
<wgt id='1190'> +7.5538864e+04 </wgt>
<wgt id='1191'> +7.4425188e+04 </wgt>
<wgt id='1192'> +7.1904631e+04 </wgt>
<wgt id='1193'> +7.6930883e+04 </wgt>
<wgt id='1194'> +7.8330473e+04 </wgt>
<wgt id='1195'> +7.2193680e+04 </wgt>
<wgt id='1196'> +7.2566823e+04 </wgt>
<wgt id='1197'> +7.3533163e+04 </wgt>
<wgt id='1198'> +7.4201470e+04 </wgt>
<wgt id='1199'> +8.0592340e+04 </wgt>
<wgt id='1200'> +7.4529665e+04 </wgt>
<wgt id='1201'> +8.0172691e+04 </wgt>
<wgt id='1202'> +6.6962979e+04 </wgt>
<wgt id='1203'> +7.3330323e+04 </wgt>
<wgt id='1204'> +7.4313755e+04 </wgt>
<wgt id='1205'> +6.7888300e+04 </wgt>
<wgt id='1206'> +7.2439168e+04 </wgt>
<wgt id='1207'> +7.3388742e+04 </wgt>
<wgt id='1208'> +7.6188335e+04 </wgt>
<wgt id='1209'> +7.4505525e+04 </wgt>
<wgt id='1210'> +7.6709669e+04 </wgt>
<wgt id='1211'> +7.5745080e+04 </wgt>
<wgt id='1212'> +7.2610209e+04 </wgt>
<wgt id='1213'> +7.5150342e+04 </wgt>
<wgt id='1214'> +7.4732665e+04 </wgt>
<wgt id='1215'> +7.6167500e+04 </wgt>
<wgt id='1216'> +7.5870112e+04 </wgt>
<wgt id='1217'> +7.4949068e+04 </wgt>
<wgt id='1218'> +7.4979720e+04 </wgt>
<wgt id='1219'> +7.4360426e+04 </wgt>
<wgt id='1220'> +7.4880278e+04 </wgt>
<wgt id='1221'> +7.4519095e+04 </wgt>
<wgt id='1222'> +7.4323268e+04 </wgt>
<wgt id='1223'> +7.5244263e+04 </wgt>
<wgt id='1224'> +7.5219675e+04 </wgt>
<wgt id='1225'> +7.5357381e+04 </wgt>
<wgt id='1226'> +7.4956987e+04 </wgt>
<wgt id='1227'> +7.5892534e+04 </wgt>
<wgt id='1228'> +7.5131443e+04 </wgt>
<wgt id='1229'> +7.4865742e+04 </wgt>
<wgt id='1230'> +7.5282497e+04 </wgt>
<wgt id='1231'> +7.5498350e+04 </wgt>
<wgt id='1232'> +7.5330378e+04 </wgt>
<wgt id='1233'> +7.4680641e+04 </wgt>
<wgt id='1234'> +7.5175998e+04 </wgt>
<wgt id='1235'> +7.5447696e+04 </wgt>
<wgt id='1236'> +7.5692424e+04 </wgt>
<wgt id='1237'> +7.5338987e+04 </wgt>
<wgt id='1238'> +7.4955086e+04 </wgt>
<wgt id='1239'> +7.5766654e+04 </wgt>
<wgt id='1240'> +7.4982988e+04 </wgt>
<wgt id='1241'> +7.5495285e+04 </wgt>
<wgt id='1242'> +7.5365624e+04 </wgt>
<wgt id='1243'> +7.5319054e+04 </wgt>
<wgt id='1244'> +7.5422359e+04 </wgt>
<wgt id='1245'> +7.5113205e+04 </wgt>
<wgt id='1246'> +7.4861833e+04 </wgt>
<wgt id='1247'> +7.5649587e+04 </wgt>
<wgt id='1248'> +7.5192308e+04 </wgt>
<wgt id='1249'> +7.5218199e+04 </wgt>
<wgt id='1250'> +7.5556016e+04 </wgt>
<wgt id='1251'> +7.5331737e+04 </wgt>
<wgt id='1252'> +7.5350928e+04 </wgt>
<wgt id='1253'> +7.5001385e+04 </wgt>
<wgt id='1254'> +7.5916712e+04 </wgt>
<wgt id='1255'> +7.4643708e+04 </wgt>
<wgt id='1256'> +7.5379534e+04 </wgt>
<wgt id='1257'> +7.5227384e+04 </wgt>
<wgt id='1258'> +7.4797568e+04 </wgt>
<wgt id='1259'> +7.4581755e+04 </wgt>
<wgt id='1260'> +7.4923496e+04 </wgt>
<wgt id='1261'> +7.4849299e+04 </wgt>
<wgt id='1262'> +7.5020184e+04 </wgt>
<wgt id='1263'> +7.5070515e+04 </wgt>
<wgt id='1264'> +7.4804840e+04 </wgt>
<wgt id='1265'> +7.4993601e+04 </wgt>
<wgt id='1266'> +7.5586287e+04 </wgt>
<wgt id='1267'> +7.4868533e+04 </wgt>
<wgt id='1268'> +7.5071435e+04 </wgt>
<wgt id='1269'> +7.5042633e+04 </wgt>
<wgt id='1270'> +7.5389173e+04 </wgt>
<wgt id='1271'> +7.5317236e+04 </wgt>
<wgt id='1272'> +7.5140812e+04 </wgt>
<wgt id='1273'> +7.5567310e+04 </wgt>
<wgt id='1274'> +7.5675728e+04 </wgt>
<wgt id='1275'> +7.5356335e+04 </wgt>
<wgt id='1276'> +7.5160369e+04 </wgt>
<wgt id='1277'> +7.5421401e+04 </wgt>
<wgt id='1278'> +7.5119445e+04 </wgt>
<wgt id='1279'> +7.5311686e+04 </wgt>
<wgt id='1280'> +7.5012647e+04 </wgt>
<wgt id='1281'> +7.5042148e+04 </wgt>
<wgt id='1282'> +7.5462768e+04 </wgt>
<wgt id='1283'> +7.5461818e+04 </wgt>
<wgt id='1284'> +7.5226656e+04 </wgt>
<wgt id='1285'> +7.5166643e+04 </wgt>
<wgt id='1286'> +7.5429704e+04 </wgt>
<wgt id='1287'> +7.5172147e+04 </wgt>
<wgt id='1288'> +7.5187149e+04 </wgt>
<wgt id='1289'> +7.5322926e+04 </wgt>
<wgt id='1290'> +7.5230782e+04 </wgt>
<wgt id='1291'> +7.5257179e+04 </wgt>
<wgt id='1292'> +7.5173278e+04 </wgt>
<wgt id='1293'> +7.4944177e+04 </wgt>
<wgt id='1294'> +7.5177461e+04 </wgt>
<wgt id='1295'> +7.5266354e+04 </wgt>
<wgt id='1296'> +7.5051024e+04 </wgt>
<wgt id='1297'> +7.5299910e+04 </wgt>
<wgt id='1298'> +7.5179090e+04 </wgt>
<wgt id='1299'> +7.5209501e+04 </wgt>
<wgt id='1300'> +7.5293560e+04 </wgt>
<wgt id='1301'> +7.5350205e+04 </wgt>
<wgt id='1302'> +7.5253944e+04 </wgt>
<wgt id='1303'> +7.5256621e+04 </wgt>
<wgt id='1304'> +7.5288486e+04 </wgt>
<wgt id='1305'> +7.5155479e+04 </wgt>
<wgt id='1306'> +7.5373537e+04 </wgt>
<wgt id='1307'> +7.5178835e+04 </wgt>
<wgt id='1308'> +7.5173565e+04 </wgt>
<wgt id='1309'> +7.5272404e+04 </wgt>
<wgt id='1310'> +7.5235643e+04 </wgt>
<wgt id='1311'> +7.5122008e+04 </wgt>
<wgt id='1312'> +7.4925452e+04 </wgt>
<wgt id='1313'> +7.5333791e+04 </wgt>
<wgt id='1314'> +7.5275450e+04 </wgt>
<wgt id='1315'> +7.5144240e+04 </wgt>
<wgt id='1316'> +7.5367801e+04 </wgt>
<wgt id='1317'> +7.5316548e+04 </wgt>
<wgt id='1318'> +7.5368969e+04 </wgt>
<wgt id='1319'> +7.5243616e+04 </wgt>
<wgt id='1320'> +7.5263028e+04 </wgt>
<wgt id='1321'> +7.5195263e+04 </wgt>
<wgt id='1322'> +7.5348604e+04 </wgt>
<wgt id='1323'> +7.5134943e+04 </wgt>
<wgt id='1324'> +7.5433277e+04 </wgt>
<wgt id='1325'> +7.5269545e+04 </wgt>
<wgt id='1326'> +7.1806993e+04 </wgt>
<wgt id='1327'> +7.0335271e+04 </wgt>
<wgt id='1328'> +7.3663743e+04 </wgt>
<wgt id='1329'> +7.5513122e+04 </wgt>
<wgt id='1330'> +7.1831512e+04 </wgt>
<wgt id='1331'> +7.3406403e+04 </wgt>
<wgt id='1332'> +7.5680692e+04 </wgt>
<wgt id='1333'> +7.4600332e+04 </wgt>
<wgt id='1334'> +7.4736838e+04 </wgt>
<wgt id='1335'> +7.3186557e+04 </wgt>
<wgt id='1336'> +7.5264686e+04 </wgt>
<wgt id='1337'> +7.2341362e+04 </wgt>
<wgt id='1338'> +7.2731973e+04 </wgt>
<wgt id='1339'> +7.3466987e+04 </wgt>
<wgt id='1340'> +7.2720485e+04 </wgt>
<wgt id='1341'> +7.4012294e+04 </wgt>
<wgt id='1342'> +7.4394239e+04 </wgt>
<wgt id='1343'> +7.5720519e+04 </wgt>
<wgt id='1344'> +7.4191237e+04 </wgt>
<wgt id='1345'> +7.3106195e+04 </wgt>
<wgt id='1346'> +7.2920912e+04 </wgt>
<wgt id='1347'> +7.4351860e+04 </wgt>
<wgt id='1348'> +7.6967279e+04 </wgt>
<wgt id='1349'> +7.3574530e+04 </wgt>
<wgt id='1350'> +7.2057883e+04 </wgt>
<wgt id='1351'> +7.3900339e+04 </wgt>
<wgt id='1352'> +7.2019956e+04 </wgt>
<wgt id='1353'> +7.4877178e+04 </wgt>
<wgt id='1354'> +7.3847141e+04 </wgt>
<wgt id='1355'> +7.3784511e+04 </wgt>
<wgt id='1356'> +7.2444314e+04 </wgt>
<wgt id='1357'> +7.2441411e+04 </wgt>
<wgt id='1358'> +7.2624721e+04 </wgt>
<wgt id='1359'> +7.3678371e+04 </wgt>
<wgt id='1360'> +7.3394127e+04 </wgt>
<wgt id='1361'> +7.5449899e+04 </wgt>
<wgt id='1362'> +7.1462600e+04 </wgt>
<wgt id='1363'> +7.5958709e+04 </wgt>
<wgt id='1364'> +7.4358333e+04 </wgt>
<wgt id='1365'> +7.5211238e+04 </wgt>
<wgt id='1366'> +7.4745989e+04 </wgt>
<wgt id='1367'> +7.0883087e+04 </wgt>
<wgt id='1368'> +7.0777155e+04 </wgt>
<wgt id='1369'> +7.6684733e+04 </wgt>
<wgt id='1370'> +7.3379444e+04 </wgt>
<wgt id='1371'> +7.4616495e+04 </wgt>
<wgt id='1372'> +7.4306779e+04 </wgt>
<wgt id='1373'> +7.3322392e+04 </wgt>
<wgt id='1374'> +7.3590470e+04 </wgt>
<wgt id='1375'> +7.2502014e+04 </wgt>
<wgt id='1376'> +7.0532590e+04 </wgt>
<wgt id='1377'> +7.2374110e+04 </wgt>
<wgt id='1378'> +7.2747271e+04 </wgt>
<wgt id='1379'> +7.4096481e+04 </wgt>
<wgt id='1380'> +7.4741514e+04 </wgt>
<wgt id='1381'> +7.4118609e+04 </wgt>
<wgt id='1382'> +7.5448638e+04 </wgt>
<wgt id='1383'> +7.3820281e+04 </wgt>
<wgt id='1384'> +7.4715138e+04 </wgt>
<wgt id='1385'> +7.2127768e+04 </wgt>
<wgt id='1386'> +7.2800447e+04 </wgt>
<wgt id='1387'> +7.3016763e+04 </wgt>
<wgt id='1388'> +7.4012692e+04 </wgt>
<wgt id='1389'> +7.2835391e+04 </wgt>
<wgt id='1390'> +7.5103952e+04 </wgt>
<wgt id='1391'> +7.2134685e+04 </wgt>
<wgt id='1392'> +7.2084376e+04 </wgt>
<wgt id='1393'> +7.5852704e+04 </wgt>
<wgt id='1394'> +7.5211238e+04 </wgt>
<wgt id='1395'> +7.4023659e+04 </wgt>
<wgt id='1396'> +7.0484091e+04 </wgt>
<wgt id='1397'> +7.3960072e+04 </wgt>
<wgt id='1398'> +7.3490851e+04 </wgt>
<wgt id='1399'> +7.2492332e+04 </wgt>
<wgt id='1400'> +7.4748291e+04 </wgt>
<wgt id='1401'> +7.2805271e+04 </wgt>
<wgt id='1402'> +7.3792039e+04 </wgt>
<wgt id='1403'> +7.2503773e+04 </wgt>
<wgt id='1404'> +7.1517054e+04 </wgt>
<wgt id='1405'> +7.4827793e+04 </wgt>
<wgt id='1406'> +7.2689782e+04 </wgt>
<wgt id='1407'> +7.2268475e+04 </wgt>
<wgt id='1408'> +7.4948195e+04 </wgt>
<wgt id='1409'> +7.3984530e+04 </wgt>
<wgt id='1410'> +7.4265604e+04 </wgt>
<wgt id='1411'> +7.1792240e+04 </wgt>
<wgt id='1412'> +7.3324962e+04 </wgt>
<wgt id='1413'> +7.4448053e+04 </wgt>
<wgt id='1414'> +7.5598868e+04 </wgt>
<wgt id='1415'> +7.4748699e+04 </wgt>
<wgt id='1416'> +7.3296551e+04 </wgt>
<wgt id='1417'> +7.5883855e+04 </wgt>
<wgt id='1418'> +7.3907609e+04 </wgt>
<wgt id='1419'> +7.4101625e+04 </wgt>
<wgt id='1420'> +7.6887741e+04 </wgt>
<wgt id='1421'> +7.4642191e+04 </wgt>
<wgt id='1422'> +7.1531923e+04 </wgt>
<wgt id='1423'> +7.3516797e+04 </wgt>
<wgt id='1424'> +7.2115034e+04 </wgt>
<wgt id='1425'> +7.4175792e+04 </wgt>
<wgt id='1426'> +7.2884888e+04 </wgt>
<wgt id='1427'> +7.2318132e+04 </wgt>
<wgt id='1428'> +7.3676022e+04 </wgt>
<wgt id='1429'> +7.4191221e+04 </wgt>
<wgt id='1430'> +7.3051900e+04 </wgt>
<wgt id='1431'> +7.3652454e+04 </wgt>
<wgt id='1432'> +7.3777290e+04 </wgt>
<wgt id='1433'> +7.3794708e+04 </wgt>
<wgt id='1434'> +7.3640652e+04 </wgt>
<wgt id='1435'> +7.3783259e+04 </wgt>
<wgt id='1436'> +7.3321554e+04 </wgt>
<wgt id='1437'> +7.4032147e+04 </wgt>
<wgt id='1438'> +7.3666837e+04 </wgt>
<wgt id='1439'> +7.4221383e+04 </wgt>
<wgt id='1440'> +7.3538883e+04 </wgt>
<wgt id='1441'> +7.3478350e+04 </wgt>
<wgt id='1442'> +7.3359771e+04 </wgt>
<wgt id='1443'> +7.3648078e+04 </wgt>
<wgt id='1444'> +7.4413261e+04 </wgt>
<wgt id='1445'> +7.3435746e+04 </wgt>
<wgt id='1446'> +7.3557846e+04 </wgt>
<wgt id='1447'> +7.3810855e+04 </wgt>
<wgt id='1448'> +7.3836776e+04 </wgt>
<wgt id='1449'> +7.3715870e+04 </wgt>
<wgt id='1450'> +7.3818739e+04 </wgt>
<wgt id='1451'> +7.3764967e+04 </wgt>
<wgt id='1452'> +7.3912119e+04 </wgt>
<wgt id='1453'> +7.3523733e+04 </wgt>
<wgt id='1454'> +7.3586310e+04 </wgt>
<wgt id='1455'> +7.3662450e+04 </wgt>
<wgt id='1456'> +7.3498789e+04 </wgt>
<wgt id='1457'> +7.3971440e+04 </wgt>
<wgt id='1458'> +7.3533559e+04 </wgt>
<wgt id='1459'> +7.3452845e+04 </wgt>
<wgt id='1460'> +7.3840204e+04 </wgt>
<wgt id='1461'> +7.3498829e+04 </wgt>
<wgt id='1462'> +7.3392370e+04 </wgt>
<wgt id='1463'> +7.3764976e+04 </wgt>
<wgt id='1464'> +7.3660512e+04 </wgt>
<wgt id='1465'> +7.3811185e+04 </wgt>
<wgt id='1466'> +7.3599999e+04 </wgt>
<wgt id='1467'> +7.3572028e+04 </wgt>
<wgt id='1468'> +7.3639605e+04 </wgt>
<wgt id='1469'> +7.3573800e+04 </wgt>
<wgt id='1470'> +7.3796886e+04 </wgt>
<wgt id='1471'> +7.3729721e+04 </wgt>
<wgt id='1472'> +7.3684326e+04 </wgt>
<wgt id='1473'> +7.3719237e+04 </wgt>
<wgt id='1474'> +7.3597835e+04 </wgt>
<wgt id='1475'> +7.3734048e+04 </wgt>
<wgt id='1476'> +7.3720130e+04 </wgt>
<wgt id='1477'> +7.3635490e+04 </wgt>
<wgt id='1478'> +7.3720074e+04 </wgt>
<wgt id='1479'> +7.3693695e+04 </wgt>
<wgt id='1480'> +7.3563145e+04 </wgt>
<wgt id='1481'> +7.3684812e+04 </wgt>
<wgt id='1482'> +7.4191221e+04 </wgt>
<wgt id='1483'> +7.3051900e+04 </wgt>
<wgt id='1484'> +7.2748543e+04 </wgt>
<wgt id='1485'> +7.1480982e+04 </wgt>
<wgt id='1486'> +7.3932352e+04 </wgt>
<wgt id='1487'> +7.2179950e+04 </wgt>
<wgt id='1488'> +7.1882845e+04 </wgt>
<wgt id='1489'> +7.1653539e+04 </wgt>
<wgt id='1490'> +7.3535024e+04 </wgt>
<wgt id='1491'> +7.2445159e+04 </wgt>
<wgt id='1492'> +7.1157088e+04 </wgt>
<wgt id='1493'> +7.2753638e+04 </wgt>
<wgt id='1494'> +7.3678018e+04 </wgt>
<wgt id='1495'> +7.1026818e+04 </wgt>
<wgt id='1496'> +7.2060776e+04 </wgt>
<wgt id='1497'> +7.2239218e+04 </wgt>
<wgt id='1498'> +7.4426189e+04 </wgt>
<wgt id='1499'> +7.3950291e+04 </wgt>
<wgt id='1500'> +7.5753322e+04 </wgt>
<wgt id='1501'> +7.4597172e+04 </wgt>
<wgt id='1502'> +7.3414304e+04 </wgt>
<wgt id='1503'> +7.1621877e+04 </wgt>
<wgt id='1504'> +7.3551301e+04 </wgt>
<wgt id='1505'> +7.5363625e+04 </wgt>
<wgt id='1506'> +7.2606677e+04 </wgt>
<wgt id='1507'> +7.2721913e+04 </wgt>
<wgt id='1508'> +7.2459954e+04 </wgt>
<wgt id='1509'> +6.9707132e+04 </wgt>
<wgt id='1510'> +6.8715752e+04 </wgt>
<wgt id='1511'> +7.1468416e+04 </wgt>
<wgt id='1512'> +7.4441518e+04 </wgt>
<wgt id='1513'> +7.2797547e+04 </wgt>
<wgt id='1514'> +7.2290717e+04 </wgt>
<wgt id='1515'> +7.1933479e+04 </wgt>
<wgt id='1516'> +7.4870172e+04 </wgt>
<wgt id='1517'> +7.2976569e+04 </wgt>
<wgt id='1518'> +7.2502659e+04 </wgt>
<wgt id='1519'> +7.1654737e+04 </wgt>
<wgt id='1520'> +7.2879564e+04 </wgt>
<wgt id='1521'> +7.4418279e+04 </wgt>
<wgt id='1522'> +7.2616962e+04 </wgt>
<wgt id='1523'> +7.2483201e+04 </wgt>
<wgt id='1524'> +7.2606611e+04 </wgt>
<wgt id='1525'> +7.4431648e+04 </wgt>
<wgt id='1526'> +7.2931449e+04 </wgt>
<wgt id='1527'> +7.2302517e+04 </wgt>
<wgt id='1528'> +7.2037543e+04 </wgt>
<wgt id='1529'> +7.1487798e+04 </wgt>
<wgt id='1530'> +7.2469648e+04 </wgt>
<wgt id='1531'> +7.0910245e+04 </wgt>
<wgt id='1532'> +7.6821675e+04 </wgt>
<wgt id='1533'> +7.2080784e+04 </wgt>
<wgt id='1534'> +7.2808765e+04 </wgt>
<wgt id='1535'> +7.1610208e+04 </wgt>
<wgt id='1536'> +7.2340270e+04 </wgt>
<wgt id='1537'> +7.1497414e+04 </wgt>
<wgt id='1538'> +7.0326317e+04 </wgt>
<wgt id='1539'> +7.2175685e+04 </wgt>
<wgt id='1540'> +7.2606260e+04 </wgt>
<wgt id='1541'> +7.3923992e+04 </wgt>
<wgt id='1542'> +7.1563206e+04 </wgt>
<wgt id='1543'> +7.2175176e+04 </wgt>
<wgt id='1544'> +7.3396742e+04 </wgt>
<wgt id='1545'> +7.4747291e+04 </wgt>
<wgt id='1546'> +7.3628476e+04 </wgt>
<wgt id='1547'> +7.2623243e+04 </wgt>
<wgt id='1548'> +7.3024411e+04 </wgt>
<wgt id='1549'> +7.1101798e+04 </wgt>
<wgt id='1550'> +7.2706652e+04 </wgt>
<wgt id='1551'> +7.4226931e+04 </wgt>
<wgt id='1552'> +7.3388235e+04 </wgt>
<wgt id='1553'> +7.3193416e+04 </wgt>
<wgt id='1554'> +7.1870557e+04 </wgt>
<wgt id='1555'> +7.1216954e+04 </wgt>
<wgt id='1556'> +7.1088291e+04 </wgt>
<wgt id='1557'> +7.1331761e+04 </wgt>
<wgt id='1558'> +7.3671000e+04 </wgt>
<wgt id='1559'> +7.2582164e+04 </wgt>
<wgt id='1560'> +7.4116963e+04 </wgt>
<wgt id='1561'> +7.1773084e+04 </wgt>
<wgt id='1562'> +7.3161563e+04 </wgt>
<wgt id='1563'> +7.0862541e+04 </wgt>
<wgt id='1564'> +7.4075473e+04 </wgt>
<wgt id='1565'> +7.2779428e+04 </wgt>
<wgt id='1566'> +7.4418038e+04 </wgt>
<wgt id='1567'> +7.5744716e+04 </wgt>
<wgt id='1568'> +7.3613919e+04 </wgt>
<wgt id='1569'> +7.2053749e+04 </wgt>
<wgt id='1570'> +7.3159487e+04 </wgt>
<wgt id='1571'> +7.2337945e+04 </wgt>
<wgt id='1572'> +7.3249417e+04 </wgt>
<wgt id='1573'> +7.2714501e+04 </wgt>
<wgt id='1574'> +7.1083470e+04 </wgt>
<wgt id='1575'> +7.4807773e+04 </wgt>
<wgt id='1576'> +7.2729545e+04 </wgt>
<wgt id='1577'> +7.1929385e+04 </wgt>
<wgt id='1578'> +7.3182451e+04 </wgt>
<wgt id='1579'> +7.3708540e+04 </wgt>
<wgt id='1580'> +7.2110098e+04 </wgt>
<wgt id='1581'> +7.2752858e+04 </wgt>
<wgt id='1582'> +7.3657528e+04 </wgt>
<wgt id='1583'> +7.2791348e+04 </wgt>
<wgt id='1584'> +7.2962592e+04 </wgt>
<wgt id='1585'> +7.4666407e+04 </wgt>
<wgt id='1586'> +7.5119777e+04 </wgt>
<wgt id='1587'> +7.4402791e+04 </wgt>
<wgt id='1588'> +7.4191221e+04 </wgt>
<wgt id='1589'> +7.3601383e+04 </wgt>
<wgt id='1590'> +7.3564650e+04 </wgt>
<wgt id='1591'> +7.3051900e+04 </wgt>
<wgt id='1592'> +7.2731288e+04 </wgt>
<wgt id='1593'> +7.1939534e+04 </wgt>
<wgt id='1594'> +7.1601674e+04 </wgt>
<wgt id='1595'> +6.9649053e+04 </wgt>
<wgt id='1596'> +6.9758291e+04 </wgt>
<wgt id='1597'> +7.4593558e+04 </wgt>
<wgt id='1598'> +6.9166394e+04 </wgt>
<wgt id='1599'> +7.4292569e+04 </wgt>
<wgt id='1600'> +6.8657421e+04 </wgt>
<wgt id='1601'> +7.4868296e+04 </wgt>
<wgt id='1602'> +7.0240969e+04 </wgt>
<wgt id='1603'> +7.3455537e+04 </wgt>
<wgt id='1604'> +7.2141069e+04 </wgt>
<wgt id='1605'> +7.2302228e+04 </wgt>
<wgt id='1606'> +7.3034496e+04 </wgt>
<wgt id='1607'> +6.9641354e+04 </wgt>
<wgt id='1608'> +7.1876780e+04 </wgt>
<wgt id='1609'> +7.0911637e+04 </wgt>
<wgt id='1610'> +7.1675522e+04 </wgt>
<wgt id='1611'> +7.1721703e+04 </wgt>
<wgt id='1612'> +7.3306792e+04 </wgt>
<wgt id='1613'> +6.8608968e+04 </wgt>
<wgt id='1614'> +7.1382669e+04 </wgt>
<wgt id='1615'> +7.2804179e+04 </wgt>
<wgt id='1616'> +7.1946679e+04 </wgt>
<wgt id='1617'> +7.1086268e+04 </wgt>
<wgt id='1618'> +7.2397332e+04 </wgt>
<wgt id='1619'> +7.1000412e+04 </wgt>
<wgt id='1620'> +7.1726923e+04 </wgt>
<wgt id='1621'> +7.1831891e+04 </wgt>
<wgt id='1622'> +7.1779380e+04 </wgt>
<wgt id='1623'> +7.0865903e+04 </wgt>
<wgt id='1624'> +7.1770950e+04 </wgt>
<wgt id='1625'> +7.1239044e+04 </wgt>
<wgt id='1626'> +7.0441708e+04 </wgt>
<wgt id='1627'> +7.2849745e+04 </wgt>
<wgt id='1628'> +7.2103144e+04 </wgt>
<wgt id='1629'> +7.1739122e+04 </wgt>
<wgt id='1630'> +7.3542451e+04 </wgt>
<wgt id='1631'> +6.9672300e+04 </wgt>
<wgt id='1632'> +6.9890740e+04 </wgt>
<wgt id='1633'> +7.3426356e+04 </wgt>
<wgt id='1634'> +7.2746110e+04 </wgt>
<wgt id='1635'> +7.0823925e+04 </wgt>
<wgt id='1636'> +7.1800865e+04 </wgt>
<wgt id='1637'> +7.1904700e+04 </wgt>
<wgt id='1638'> +7.2165713e+04 </wgt>
<wgt id='1639'> +7.1736726e+04 </wgt>
<wgt id='1640'> +7.2729323e+04 </wgt>
<wgt id='1641'> +7.0755597e+04 </wgt>
<wgt id='1642'> +7.2689026e+04 </wgt>
<wgt id='1643'> +7.0249194e+04 </wgt>
<wgt id='1644'> +7.1866891e+04 </wgt>
<wgt id='1645'> +7.0695013e+04 </wgt>
<wgt id='1646'> +7.1548814e+04 </wgt>
<wgt id='1647'> +7.2397641e+04 </wgt>
<wgt id='1648'> +7.1451496e+04 </wgt>
<wgt id='1649'> +7.1802617e+04 </wgt>
<wgt id='1650'> +7.2296422e+04 </wgt>
<wgt id='1651'> +7.1327521e+04 </wgt>
<wgt id='1652'> +7.2137837e+04 </wgt>
<wgt id='1653'> +7.2020547e+04 </wgt>
<wgt id='1654'> +7.1898332e+04 </wgt>
<wgt id='1655'> +7.1896502e+04 </wgt>
<wgt id='1656'> +7.2732817e+04 </wgt>
<wgt id='1657'> +7.0807320e+04 </wgt>
<wgt id='1658'> +7.2594868e+04 </wgt>
<wgt id='1659'> +7.1623406e+04 </wgt>
<wgt id='1660'> +7.3443151e+04 </wgt>
<wgt id='1661'> +7.3381509e+04 </wgt>
<wgt id='1662'> +7.1513313e+04 </wgt>
<wgt id='1663'> +7.2285367e+04 </wgt>
<wgt id='1664'> +7.1344603e+04 </wgt>
<wgt id='1665'> +7.2665590e+04 </wgt>
<wgt id='1666'> +7.2052790e+04 </wgt>
<wgt id='1667'> +7.1814734e+04 </wgt>
<wgt id='1668'> +7.3207413e+04 </wgt>
<wgt id='1669'> +7.3145353e+04 </wgt>
<wgt id='1670'> +7.1608012e+04 </wgt>
<wgt id='1671'> +7.3466597e+04 </wgt>
<wgt id='1672'> +7.1343394e+04 </wgt>
<wgt id='1673'> +7.2648228e+04 </wgt>
<wgt id='1674'> +7.2700690e+04 </wgt>
<wgt id='1675'> +7.4747995e+04 </wgt>
<wgt id='1676'> +7.0347691e+04 </wgt>
<wgt id='1677'> +7.2275376e+04 </wgt>
<wgt id='1678'> +7.2917122e+04 </wgt>
<wgt id='1679'> +7.1775147e+04 </wgt>
<wgt id='1680'> +7.4124247e+04 </wgt>
<wgt id='1681'> +7.1309715e+04 </wgt>
<wgt id='1682'> +7.3431858e+04 </wgt>
<wgt id='1683'> +7.2891853e+04 </wgt>
<wgt id='1684'> +7.2505876e+04 </wgt>
<wgt id='1685'> +7.2891594e+04 </wgt>
<wgt id='1686'> +7.1941182e+04 </wgt>
<wgt id='1687'> +7.4028107e+04 </wgt>
<wgt id='1688'> +7.0465477e+04 </wgt>
<wgt id='1689'> +7.3839067e+04 </wgt>
<wgt id='1690'> +7.1684741e+04 </wgt>
<wgt id='1691'> +7.2799443e+04 </wgt>
<wgt id='1692'> +7.1894616e+04 </wgt>
<wgt id='1693'> +7.3446512e+04 </wgt>
<wgt id='1694'> +7.2311071e+04 </wgt>
<wgt id='1695'> +7.1867986e+04 </wgt>
<wgt id='1696'> +7.2842970e+04 </wgt>
<wgt id='1697'> +7.4269846e+04 </wgt>
<wgt id='1698'> +7.1025291e+04 </wgt>
<wgt id='1699'> +7.0373236e+04 </wgt>
<wgt id='1700'> +7.5839193e+04 </wgt>
<wgt id='1701'> +7.3220613e+04 </wgt>
<wgt id='1702'> +7.2313635e+04 </wgt>
<wgt id='1703'> +7.3150228e+04 </wgt>
<wgt id='1704'> +7.2554977e+04 </wgt>
<wgt id='1705'> +7.1085660e+04 </wgt>
<wgt id='1706'> +7.4026147e+04 </wgt>
<wgt id='1707'> +7.0552971e+04 </wgt>
<wgt id='1708'> +7.4228227e+04 </wgt>
<wgt id='1709'> +7.2117690e+04 </wgt>
<wgt id='1710'> +7.3301661e+04 </wgt>
<wgt id='1711'> +7.1218514e+04 </wgt>
<wgt id='1712'> +7.3202799e+04 </wgt>
<wgt id='1713'> +7.2530073e+04 </wgt>
<wgt id='1714'> +7.2557451e+04 </wgt>
<wgt id='1715'> +6.9189633e+04 </wgt>
<wgt id='1716'> +7.3533283e+04 </wgt>
<wgt id='1717'> +7.1603843e+04 </wgt>
<wgt id='1718'> +7.1360554e+04 </wgt>
<wgt id='1719'> +7.1912381e+04 </wgt>
<wgt id='1720'> +7.1480269e+04 </wgt>
<wgt id='1721'> +7.1716823e+04 </wgt>
<wgt id='1722'> +7.1510922e+04 </wgt>
<wgt id='1723'> +7.1756141e+04 </wgt>
<wgt id='1724'> +7.2075553e+04 </wgt>
<wgt id='1725'> +7.1220945e+04 </wgt>
<wgt id='1726'> +7.1593830e+04 </wgt>
<wgt id='1727'> +7.1613421e+04 </wgt>
<wgt id='1728'> +7.0454200e+04 </wgt>
<wgt id='1729'> +7.2723725e+04 </wgt>
<wgt id='1730'> +7.1996486e+04 </wgt>
<wgt id='1731'> +7.1324822e+04 </wgt>
<wgt id='1732'> +7.2186211e+04 </wgt>
<wgt id='1733'> +7.2186211e+04 </wgt>
<wgt id='1734'> +7.1491087e+04 </wgt>
<wgt id='1735'> +7.1676226e+04 </wgt>
<wgt id='1736'> +7.1262947e+04 </wgt>
<wgt id='1737'> +7.2075473e+04 </wgt>
<wgt id='1738'> +7.1896053e+04 </wgt>
<wgt id='1739'> +7.1066276e+04 </wgt>
<wgt id='1740'> +7.1512162e+04 </wgt>
<wgt id='1741'> +7.1822268e+04 </wgt>
<wgt id='1742'> +7.1525276e+04 </wgt>
<wgt id='1743'> +7.1691498e+04 </wgt>
<wgt id='1744'> +7.1352031e+04 </wgt>
<wgt id='1745'> +7.2297310e+04 </wgt>
<wgt id='1746'> +7.1553727e+04 </wgt>
<wgt id='1747'> +7.1616870e+04 </wgt>
<wgt id='1748'> +7.1860961e+04 </wgt>
<wgt id='1749'> +7.0754749e+04 </wgt>
<wgt id='1750'> +7.1635504e+04 </wgt>
<wgt id='1751'> +7.1568605e+04 </wgt>
<wgt id='1752'> +7.1206242e+04 </wgt>
<wgt id='1753'> +7.2148517e+04 </wgt>
<wgt id='1754'> +7.1216798e+04 </wgt>
<wgt id='1755'> +7.1817482e+04 </wgt>
<wgt id='1756'> +7.1641608e+04 </wgt>
<wgt id='1757'> +7.1513585e+04 </wgt>
<wgt id='1758'> +7.1883332e+04 </wgt>
<wgt id='1759'> +7.1214757e+04 </wgt>
<wgt id='1760'> +7.1866902e+04 </wgt>
<wgt id='1761'> +7.1421436e+04 </wgt>
<wgt id='1762'> +7.1595764e+04 </wgt>
<wgt id='1763'> +7.1352319e+04 </wgt>
<wgt id='1764'> +7.1385906e+04 </wgt>
<wgt id='1765'> +7.2696028e+04 </wgt>
<wgt id='1766'> +7.1884084e+04 </wgt>
<wgt id='1767'> +7.1273527e+04 </wgt>
<wgt id='1768'> +7.1692412e+04 </wgt>
<wgt id='1769'> +7.1548006e+04 </wgt>
<wgt id='1770'> +7.1255198e+04 </wgt>
<wgt id='1771'> +7.1942098e+04 </wgt>
<wgt id='1772'> +7.1347728e+04 </wgt>
<wgt id='1773'> +7.2213391e+04 </wgt>
<wgt id='1774'> +7.1011654e+04 </wgt>
<wgt id='1775'> +7.1968613e+04 </wgt>
<wgt id='1776'> +7.2070185e+04 </wgt>
<wgt id='1777'> +7.1402660e+04 </wgt>
<wgt id='1778'> +7.0970649e+04 </wgt>
<wgt id='1779'> +7.1698174e+04 </wgt>
<wgt id='1780'> +7.2670303e+04 </wgt>
<wgt id='1781'> +7.1554097e+04 </wgt>
<wgt id='1782'> +7.1603843e+04 </wgt>
<wgt id='1783'> +7.1665027e+04 </wgt>
<wgt id='1784'> +7.1989279e+04 </wgt>
<wgt id='1785'> +7.2096028e+04 </wgt>
<wgt id='1786'> +7.0798593e+04 </wgt>
<wgt id='1787'> +7.2031514e+04 </wgt>
<wgt id='1788'> +7.0055436e+04 </wgt>
<wgt id='1789'> +7.2013508e+04 </wgt>
<wgt id='1790'> +7.2475656e+04 </wgt>
<wgt id='1791'> +7.2040428e+04 </wgt>
<wgt id='1792'> +7.1900607e+04 </wgt>
<wgt id='1793'> +7.2116306e+04 </wgt>
<wgt id='1794'> +7.1947438e+04 </wgt>
<wgt id='1795'> +7.1340720e+04 </wgt>
<wgt id='1796'> +7.2134507e+04 </wgt>
<wgt id='1797'> +7.1781022e+04 </wgt>
<wgt id='1798'> +7.2001798e+04 </wgt>
<wgt id='1799'> +7.2258259e+04 </wgt>
<wgt id='1800'> +7.2171814e+04 </wgt>
<wgt id='1801'> +7.3101060e+04 </wgt>
<wgt id='1802'> +7.1945786e+04 </wgt>
<wgt id='1803'> +7.2035004e+04 </wgt>
<wgt id='1804'> +7.2016269e+04 </wgt>
<wgt id='1805'> +7.1538360e+04 </wgt>
<wgt id='1806'> +7.1887945e+04 </wgt>
<wgt id='1807'> +7.1990848e+04 </wgt>
<wgt id='1808'> +7.2076313e+04 </wgt>
<wgt id='1809'> +7.2063120e+04 </wgt>
<wgt id='1810'> +7.1795649e+04 </wgt>
<wgt id='1811'> +7.2117023e+04 </wgt>
<wgt id='1812'> +7.1919217e+04 </wgt>
<wgt id='1813'> +7.1794555e+04 </wgt>
<wgt id='1814'> +7.1994949e+04 </wgt>
<wgt id='1815'> +7.2000592e+04 </wgt>
<wgt id='1816'> +7.1882011e+04 </wgt>
<wgt id='1817'> +7.1905305e+04 </wgt>
<wgt id='1818'> +7.2094153e+04 </wgt>
<wgt id='1819'> +7.1996580e+04 </wgt>
<wgt id='1820'> +7.1993370e+04 </wgt>
<wgt id='1821'> +7.3029556e+04 </wgt>
<wgt id='1822'> +7.1874769e+04 </wgt>
<wgt id='1823'> +7.2034712e+04 </wgt>
<wgt id='1824'> +7.1962587e+04 </wgt>
<wgt id='1825'> +7.2313951e+04 </wgt>
<wgt id='1826'> +7.2535595e+04 </wgt>
<wgt id='1827'> +7.9324683e+04 </wgt>
<wgt id='1828'> +7.9587704e+04 </wgt>
<wgt id='1829'> +7.9107299e+04 </wgt>
<wgt id='1830'> +7.9207916e+04 </wgt>
<wgt id='1831'> +7.9485239e+04 </wgt>
<wgt id='1832'> +7.9426800e+04 </wgt>
<wgt id='1833'> +7.9266990e+04 </wgt>
<wgt id='1834'> +7.8646856e+04 </wgt>
<wgt id='1835'> +8.0025631e+04 </wgt>
<wgt id='1836'> +7.9783195e+04 </wgt>
<wgt id='1837'> +7.8901988e+04 </wgt>
<wgt id='1838'> +7.9438268e+04 </wgt>
<wgt id='1839'> +7.9257638e+04 </wgt>
<wgt id='1840'> +7.9199920e+04 </wgt>
<wgt id='1841'> +7.9499437e+04 </wgt>
<wgt id='1842'> +7.9369052e+04 </wgt>
<wgt id='1843'> +7.9473547e+04 </wgt>
<wgt id='1844'> +7.9013572e+04 </wgt>
<wgt id='1845'> +7.9666258e+04 </wgt>
<wgt id='1846'> +7.9752314e+04 </wgt>
<wgt id='1847'> +7.8947227e+04 </wgt>
<wgt id='1848'> +7.8016133e+04 </wgt>
<wgt id='1849'> +8.0592982e+04 </wgt>
<wgt id='1850'> +7.8317641e+04 </wgt>
<wgt id='1851'> +8.0387755e+04 </wgt>
<wgt id='1852'> +7.9271899e+04 </wgt>
<wgt id='1853'> +7.9151819e+04 </wgt>
<wgt id='1854'> +7.8882772e+04 </wgt>
<wgt id='1855'> +7.9486654e+04 </wgt>
<wgt id='1856'> +6.8480787e+04 </wgt>
<wgt id='1857'> +6.8469990e+04 </wgt>
<wgt id='1858'> +6.8409502e+04 </wgt>
<wgt id='1859'> +6.8639275e+04 </wgt>
<wgt id='1860'> +6.8484039e+04 </wgt>
<wgt id='1861'> +6.8664576e+04 </wgt>
<wgt id='1862'> +6.8118202e+04 </wgt>
<wgt id='1863'> +6.8613858e+04 </wgt>
<wgt id='1864'> +6.8149713e+04 </wgt>
<wgt id='1865'> +6.8289456e+04 </wgt>
<wgt id='1866'> +6.8763216e+04 </wgt>
<wgt id='1867'> +6.8408293e+04 </wgt>
<wgt id='1868'> +6.8524050e+04 </wgt>
<wgt id='1869'> +6.8647727e+04 </wgt>
<wgt id='1870'> +6.8227658e+04 </wgt>
<wgt id='1871'> +6.8667180e+04 </wgt>
<wgt id='1872'> +6.8285394e+04 </wgt>
<wgt id='1873'> +6.8470212e+04 </wgt>
<wgt id='1874'> +6.8510624e+04 </wgt>
<wgt id='1875'> +6.8654432e+04 </wgt>
<wgt id='1876'> +6.8544918e+04 </wgt>
<wgt id='1877'> +6.8242942e+04 </wgt>
<wgt id='1878'> +6.8441066e+04 </wgt>
<wgt id='1879'> +6.8261478e+04 </wgt>
<wgt id='1880'> +6.8535055e+04 </wgt>
<wgt id='1881'> +6.8486764e+04 </wgt>
<wgt id='1882'> +6.8873362e+04 </wgt>
<wgt id='1883'> +6.8387632e+04 </wgt>
<wgt id='1884'> +6.9034311e+04 </wgt>
<wgt id='1885'> +6.8156857e+04 </wgt>
<wgt id='1886'> +8.9232519e+04 </wgt>
<wgt id='1887'> +8.4259700e+04 </wgt>
<wgt id='1888'> +6.9124955e+04 </wgt>
<wgt id='1889'> +7.4542483e+04 </wgt>
</rwgt>
</event>
<event npLO=" -1 " npNLO=" 0 ">
 6      1 +7.4519530e+04 3.16131570e+01 7.55820760e-03 1.18893170e-01
        1 -1    0    0  501    0 +0.0000000000e+00 +0.0000000000e+00 +3.4770528365e+02 3.4770528365e+02 0.0000000000e+00 0.0000e+00 -1.0000e+00
       21 -1    0    0  502  501 +0.0000000000e+00 +0.0000000000e+00 -1.3714812907e+01 1.3714812907e+01 0.0000000000e+00 0.0000e+00 -1.0000e+00
      -24  2    1    2    0    0 +3.0004789051e+01 +1.4182852802e+01 +3.0580428268e+02 3.1787814119e+02 8.0179876909e+01 0.0000e+00 0.0000e+00
       11  1    3    3    0    0 +7.1878677615e+00 +3.7811156053e+01 +2.5138464139e+02 2.5431395340e+02 0.0000000000e+00 0.0000e+00 -1.0000e+00
      -12  1    3    3    0    0 +2.2816921289e+01 -2.3628303251e+01 +5.4419641283e+01 6.3564187787e+01 0.0000000000e+00 0.0000e+00 1.0000e+00
        2  1    1    2  502    0 -3.0004789051e+01 -1.4182852802e+01 +2.8186188059e+01 4.3541955364e+01 0.0000000000e+00 0.0000e+00 -1.0000e+00
#aMCatNLO 2  0  0  2  2 0.36116147E+02 0.00000000E+00 -9  5  0 0.00000000E+00 0.00000000E+00 0.00000000E+00 0.00000000E+00 0.00000000E+00
<rwgt>
<wgt id='1001'> +7.4519530e+04 </wgt>
<wgt id='1002'> +6.7419605e+04 </wgt>
<wgt id='1003'> +8.3342368e+04 </wgt>
<wgt id='1004'> +8.0211251e+04 </wgt>
<wgt id='1005'> +7.2569041e+04 </wgt>
<wgt id='1006'> +8.9707967e+04 </wgt>
<wgt id='1007'> +6.7533223e+04 </wgt>
<wgt id='1008'> +6.1098925e+04 </wgt>
<wgt id='1009'> +7.5528907e+04 </wgt>
<wgt id='1010'> +7.4519530e+04 </wgt>
<wgt id='1011'> +7.4701971e+04 </wgt>
<wgt id='1012'> +7.4374110e+04 </wgt>
<wgt id='1013'> +7.4684068e+04 </wgt>
<wgt id='1014'> +7.4519098e+04 </wgt>
<wgt id='1015'> +7.4897024e+04 </wgt>
<wgt id='1016'> +7.4324103e+04 </wgt>
<wgt id='1017'> +7.4415703e+04 </wgt>
<wgt id='1018'> +7.4247531e+04 </wgt>
<wgt id='1019'> +7.4594948e+04 </wgt>
<wgt id='1020'> +7.4579316e+04 </wgt>
<wgt id='1021'> +7.4631984e+04 </wgt>
<wgt id='1022'> +7.4399001e+04 </wgt>
<wgt id='1023'> +7.4424446e+04 </wgt>
<wgt id='1024'> +7.4504987e+04 </wgt>
<wgt id='1025'> +7.4897134e+04 </wgt>
<wgt id='1026'> +7.4220397e+04 </wgt>
<wgt id='1027'> +7.4438094e+04 </wgt>
<wgt id='1028'> +7.4474984e+04 </wgt>
<wgt id='1029'> +7.4749958e+04 </wgt>
<wgt id='1030'> +7.4619865e+04 </wgt>
<wgt id='1031'> +7.4570227e+04 </wgt>
<wgt id='1032'> +7.4636127e+04 </wgt>
<wgt id='1033'> +7.4490036e+04 </wgt>
<wgt id='1034'> +7.4670760e+04 </wgt>
<wgt id='1035'> +7.4308284e+04 </wgt>
<wgt id='1036'> +7.4475132e+04 </wgt>
<wgt id='1037'> +7.4959023e+04 </wgt>
<wgt id='1038'> +7.4664343e+04 </wgt>
<wgt id='1039'> +7.4770856e+04 </wgt>
<wgt id='1040'> +7.4381370e+04 </wgt>
<wgt id='1041'> +7.5123026e+04 </wgt>
<wgt id='1042'> +7.4469631e+04 </wgt>
<wgt id='1043'> +7.4818686e+04 </wgt>
<wgt id='1044'> +7.4677989e+04 </wgt>
<wgt id='1045'> +7.4471635e+04 </wgt>
<wgt id='1046'> +7.4297791e+04 </wgt>
<wgt id='1047'> +7.4435948e+04 </wgt>
<wgt id='1048'> +7.4427485e+04 </wgt>
<wgt id='1049'> +7.4666505e+04 </wgt>
<wgt id='1050'> +7.4490240e+04 </wgt>
<wgt id='1051'> +7.4702740e+04 </wgt>
<wgt id='1052'> +7.4656270e+04 </wgt>
<wgt id='1053'> +7.4511023e+04 </wgt>
<wgt id='1054'> +7.4189222e+04 </wgt>
<wgt id='1055'> +7.4393389e+04 </wgt>
<wgt id='1056'> +7.4657503e+04 </wgt>
<wgt id='1057'> +7.4340805e+04 </wgt>
<wgt id='1058'> +7.4523735e+04 </wgt>
<wgt id='1059'> +7.4480627e+04 </wgt>
<wgt id='1060'> +7.4394428e+04 </wgt>
<wgt id='1061'> +7.4395525e+04 </wgt>
<wgt id='1062'> +7.4606247e+04 </wgt>
<wgt id='1063'> +7.4695886e+04 </wgt>
<wgt id='1064'> +7.4679227e+04 </wgt>
<wgt id='1065'> +7.4529797e+04 </wgt>
<wgt id='1066'> +7.4484899e+04 </wgt>
<wgt id='1067'> +7.4617264e+04 </wgt>
<wgt id='1068'> +7.4575327e+04 </wgt>
<wgt id='1069'> +7.4658219e+04 </wgt>
<wgt id='1070'> +7.4558295e+04 </wgt>
<wgt id='1071'> +7.4645395e+04 </wgt>
<wgt id='1072'> +7.4520597e+04 </wgt>
<wgt id='1073'> +7.4404244e+04 </wgt>
<wgt id='1074'> +7.4425418e+04 </wgt>
<wgt id='1075'> +7.4679007e+04 </wgt>
<wgt id='1076'> +7.4554673e+04 </wgt>
<wgt id='1077'> +7.4503633e+04 </wgt>
<wgt id='1078'> +7.4527224e+04 </wgt>
<wgt id='1079'> +7.4555097e+04 </wgt>
<wgt id='1080'> +7.4645782e+04 </wgt>
<wgt id='1081'> +7.4519191e+04 </wgt>
<wgt id='1082'> +7.4494756e+04 </wgt>
<wgt id='1083'> +7.4444333e+04 </wgt>
<wgt id='1084'> +7.4558206e+04 </wgt>
<wgt id='1085'> +7.4453876e+04 </wgt>
<wgt id='1086'> +7.4563562e+04 </wgt>
<wgt id='1087'> +7.4517503e+04 </wgt>
<wgt id='1088'> +7.4462805e+04 </wgt>
<wgt id='1089'> +7.4529351e+04 </wgt>
<wgt id='1090'> +7.4500299e+04 </wgt>
<wgt id='1091'> +7.4491849e+04 </wgt>
<wgt id='1092'> +7.4531666e+04 </wgt>
<wgt id='1093'> +7.4486914e+04 </wgt>
<wgt id='1094'> +7.4546982e+04 </wgt>
<wgt id='1095'> +7.4442336e+04 </wgt>
<wgt id='1096'> +7.4510045e+04 </wgt>
<wgt id='1097'> +7.4530293e+04 </wgt>
<wgt id='1098'> +7.4505549e+04 </wgt>
<wgt id='1099'> +7.4526274e+04 </wgt>
<wgt id='1100'> +7.4555608e+04 </wgt>
<wgt id='1101'> +7.4497575e+04 </wgt>
<wgt id='1102'> +7.4493980e+04 </wgt>
<wgt id='1103'> +7.4460266e+04 </wgt>
<wgt id='1104'> +7.4516192e+04 </wgt>
<wgt id='1105'> +7.4498905e+04 </wgt>
<wgt id='1106'> +7.4438081e+04 </wgt>
<wgt id='1107'> +7.4498368e+04 </wgt>
<wgt id='1108'> +7.4566544e+04 </wgt>
<wgt id='1109'> +7.4507519e+04 </wgt>
<wgt id='1110'> +7.4519530e+04 </wgt>
<wgt id='1111'> +7.3598086e+04 </wgt>
<wgt id='1112'> +7.4893121e+04 </wgt>
<wgt id='1113'> +7.4519530e+04 </wgt>
<wgt id='1114'> +7.6999100e+04 </wgt>
<wgt id='1115'> +7.5649519e+04 </wgt>
<wgt id='1116'> +7.2868696e+04 </wgt>
<wgt id='1117'> +7.2545364e+04 </wgt>
<wgt id='1118'> +7.4865270e+04 </wgt>
<wgt id='1119'> +7.4150767e+04 </wgt>
<wgt id='1120'> +7.5929675e+04 </wgt>
<wgt id='1121'> +7.4829649e+04 </wgt>
<wgt id='1122'> +7.5253145e+04 </wgt>
<wgt id='1123'> +7.2271487e+04 </wgt>
<wgt id='1124'> +7.3586636e+04 </wgt>
<wgt id='1125'> +7.3332357e+04 </wgt>
<wgt id='1126'> +7.3744109e+04 </wgt>
<wgt id='1127'> +7.4636325e+04 </wgt>
<wgt id='1128'> +7.5730963e+04 </wgt>
<wgt id='1129'> +7.4726252e+04 </wgt>
<wgt id='1130'> +7.5340586e+04 </wgt>
<wgt id='1131'> +7.5283514e+04 </wgt>
<wgt id='1132'> +7.5487646e+04 </wgt>
<wgt id='1133'> +7.3756776e+04 </wgt>
<wgt id='1134'> +7.4852366e+04 </wgt>
<wgt id='1135'> +7.6069324e+04 </wgt>
<wgt id='1136'> +7.6648480e+04 </wgt>
<wgt id='1137'> +7.4915365e+04 </wgt>
<wgt id='1138'> +7.5371878e+04 </wgt>
<wgt id='1139'> +7.5543541e+04 </wgt>
<wgt id='1140'> +7.4166855e+04 </wgt>
<wgt id='1141'> +7.4845921e+04 </wgt>
<wgt id='1142'> +7.3707371e+04 </wgt>
<wgt id='1143'> +7.5288835e+04 </wgt>
<wgt id='1144'> +7.4188736e+04 </wgt>
<wgt id='1145'> +7.3509395e+04 </wgt>
<wgt id='1146'> +7.5236885e+04 </wgt>
<wgt id='1147'> +7.2508888e+04 </wgt>
<wgt id='1148'> +7.4195031e+04 </wgt>
<wgt id='1149'> +7.5378433e+04 </wgt>
<wgt id='1150'> +7.6199330e+04 </wgt>
<wgt id='1151'> +7.3240896e+04 </wgt>
<wgt id='1152'> +7.3902838e+04 </wgt>
<wgt id='1153'> +7.2841009e+04 </wgt>
<wgt id='1154'> +7.3674330e+04 </wgt>
<wgt id='1155'> +7.4704194e+04 </wgt>
<wgt id='1156'> +7.4497464e+04 </wgt>
<wgt id='1157'> +7.3234417e+04 </wgt>
<wgt id='1158'> +7.5247070e+04 </wgt>
<wgt id='1159'> +7.3344520e+04 </wgt>
<wgt id='1160'> +7.3125440e+04 </wgt>
<wgt id='1161'> +7.5393184e+04 </wgt>
<wgt id='1162'> +7.5710656e+04 </wgt>
<wgt id='1163'> +7.3854499e+04 </wgt>
<wgt id='1164'> +7.4386018e+04 </wgt>
<wgt id='1165'> +7.5782452e+04 </wgt>
<wgt id='1166'> +7.3804744e+04 </wgt>
<wgt id='1167'> +7.5661896e+04 </wgt>
<wgt id='1168'> +7.4433440e+04 </wgt>
<wgt id='1169'> +7.5941515e+04 </wgt>
<wgt id='1170'> +7.8306764e+04 </wgt>
<wgt id='1171'> +7.6882525e+04 </wgt>
<wgt id='1172'> +7.4953742e+04 </wgt>
<wgt id='1173'> +7.6390938e+04 </wgt>
<wgt id='1174'> +7.3704740e+04 </wgt>
<wgt id='1175'> +7.5547267e+04 </wgt>
<wgt id='1176'> +7.2937736e+04 </wgt>
<wgt id='1177'> +7.3198298e+04 </wgt>
<wgt id='1178'> +7.5436501e+04 </wgt>
<wgt id='1179'> +7.6744183e+04 </wgt>
<wgt id='1180'> +7.3668927e+04 </wgt>
<wgt id='1181'> +7.4938246e+04 </wgt>
<wgt id='1182'> +7.3304414e+04 </wgt>
<wgt id='1183'> +7.3765932e+04 </wgt>
<wgt id='1184'> +7.4912329e+04 </wgt>
<wgt id='1185'> +7.6473717e+04 </wgt>
<wgt id='1186'> +7.3020776e+04 </wgt>
<wgt id='1187'> +7.2089741e+04 </wgt>
<wgt id='1188'> +7.3777641e+04 </wgt>
<wgt id='1189'> +7.3532375e+04 </wgt>
<wgt id='1190'> +7.2574594e+04 </wgt>
<wgt id='1191'> +7.4997583e+04 </wgt>
<wgt id='1192'> +7.3307184e+04 </wgt>
<wgt id='1193'> +7.2158495e+04 </wgt>
<wgt id='1194'> +7.4143254e+04 </wgt>
<wgt id='1195'> +7.4726252e+04 </wgt>
<wgt id='1196'> +7.0295270e+04 </wgt>
<wgt id='1197'> +7.4959389e+04 </wgt>
<wgt id='1198'> +7.4426979e+04 </wgt>
<wgt id='1199'> +7.8105250e+04 </wgt>
<wgt id='1200'> +7.5244109e+04 </wgt>
<wgt id='1201'> +7.3660470e+04 </wgt>
<wgt id='1202'> +6.8597851e+04 </wgt>
<wgt id='1203'> +7.3392208e+04 </wgt>
<wgt id='1204'> +7.5833519e+04 </wgt>
<wgt id='1205'> +7.4046649e+04 </wgt>
<wgt id='1206'> +7.4839763e+04 </wgt>
<wgt id='1207'> +7.5967547e+04 </wgt>
<wgt id='1208'> +7.5929383e+04 </wgt>
<wgt id='1209'> +7.5001143e+04 </wgt>
<wgt id='1210'> +7.3994056e+04 </wgt>
<wgt id='1211'> +7.4470917e+04 </wgt>
<wgt id='1212'> +7.4395338e+04 </wgt>
<wgt id='1213'> +7.6801002e+04 </wgt>
<wgt id='1214'> +7.4354385e+04 </wgt>
<wgt id='1215'> +7.1482008e+04 </wgt>
<wgt id='1216'> +7.1919969e+04 </wgt>
<wgt id='1217'> +7.2520102e+04 </wgt>
<wgt id='1218'> +7.3307979e+04 </wgt>
<wgt id='1219'> +7.4260746e+04 </wgt>
<wgt id='1220'> +7.4532352e+04 </wgt>
<wgt id='1221'> +7.5528763e+04 </wgt>
<wgt id='1222'> +7.5605514e+04 </wgt>
<wgt id='1223'> +7.4450995e+04 </wgt>
<wgt id='1224'> +7.4544209e+04 </wgt>
<wgt id='1225'> +7.4331364e+04 </wgt>
<wgt id='1226'> +7.4561167e+04 </wgt>
<wgt id='1227'> +7.4413689e+04 </wgt>
<wgt id='1228'> +7.4568933e+04 </wgt>
<wgt id='1229'> +7.4421810e+04 </wgt>
<wgt id='1230'> +7.4433915e+04 </wgt>
<wgt id='1231'> +7.4608236e+04 </wgt>
<wgt id='1232'> +7.4271832e+04 </wgt>
<wgt id='1233'> +7.4373001e+04 </wgt>
<wgt id='1234'> +7.4528344e+04 </wgt>
<wgt id='1235'> +7.4513043e+04 </wgt>
<wgt id='1236'> +7.4381477e+04 </wgt>
<wgt id='1237'> +7.4463921e+04 </wgt>
<wgt id='1238'> +7.4459099e+04 </wgt>
<wgt id='1239'> +7.4664176e+04 </wgt>
<wgt id='1240'> +7.4334146e+04 </wgt>
<wgt id='1241'> +7.4495812e+04 </wgt>
<wgt id='1242'> +7.4400040e+04 </wgt>
<wgt id='1243'> +7.4244202e+04 </wgt>
<wgt id='1244'> +7.4691248e+04 </wgt>
<wgt id='1245'> +7.4446083e+04 </wgt>
<wgt id='1246'> +7.4429178e+04 </wgt>
<wgt id='1247'> +7.4800170e+04 </wgt>
<wgt id='1248'> +7.4269204e+04 </wgt>
<wgt id='1249'> +7.4529608e+04 </wgt>
<wgt id='1250'> +7.4169268e+04 </wgt>
<wgt id='1251'> +7.4590411e+04 </wgt>
<wgt id='1252'> +7.4901936e+04 </wgt>
<wgt id='1253'> +7.3965437e+04 </wgt>
<wgt id='1254'> +7.3983973e+04 </wgt>
<wgt id='1255'> +7.4762460e+04 </wgt>
<wgt id='1256'> +7.4363345e+04 </wgt>
<wgt id='1257'> +7.4295737e+04 </wgt>
<wgt id='1258'> +7.4609112e+04 </wgt>
<wgt id='1259'> +7.4489847e+04 </wgt>
<wgt id='1260'> +7.4195757e+04 </wgt>
<wgt id='1261'> +7.4426496e+04 </wgt>
<wgt id='1262'> +7.4532051e+04 </wgt>
<wgt id='1263'> +7.4378032e+04 </wgt>
<wgt id='1264'> +7.4668559e+04 </wgt>
<wgt id='1265'> +7.4323419e+04 </wgt>
<wgt id='1266'> +7.4331620e+04 </wgt>
<wgt id='1267'> +7.4393566e+04 </wgt>
<wgt id='1268'> +7.4356429e+04 </wgt>
<wgt id='1269'> +7.4562487e+04 </wgt>
<wgt id='1270'> +7.4633294e+04 </wgt>
<wgt id='1271'> +7.4533880e+04 </wgt>
<wgt id='1272'> +7.4353346e+04 </wgt>
<wgt id='1273'> +7.4528951e+04 </wgt>
<wgt id='1274'> +7.4536182e+04 </wgt>
<wgt id='1275'> +7.4409799e+04 </wgt>
<wgt id='1276'> +7.4338806e+04 </wgt>
<wgt id='1277'> +7.4364423e+04 </wgt>
<wgt id='1278'> +7.4516597e+04 </wgt>
<wgt id='1279'> +7.4197610e+04 </wgt>
<wgt id='1280'> +7.4480127e+04 </wgt>
<wgt id='1281'> +7.4402003e+04 </wgt>
<wgt id='1282'> +7.4525199e+04 </wgt>
<wgt id='1283'> +7.4360561e+04 </wgt>
<wgt id='1284'> +7.4515321e+04 </wgt>
<wgt id='1285'> +7.4437557e+04 </wgt>
<wgt id='1286'> +7.4593629e+04 </wgt>
<wgt id='1287'> +7.4368520e+04 </wgt>
<wgt id='1288'> +7.4416845e+04 </wgt>
<wgt id='1289'> +7.4584279e+04 </wgt>
<wgt id='1290'> +7.4352415e+04 </wgt>
<wgt id='1291'> +7.4492257e+04 </wgt>
<wgt id='1292'> +7.4471424e+04 </wgt>
<wgt id='1293'> +7.4479998e+04 </wgt>
<wgt id='1294'> +7.4486154e+04 </wgt>
<wgt id='1295'> +7.4484943e+04 </wgt>
<wgt id='1296'> +7.4441015e+04 </wgt>
<wgt id='1297'> +7.4491846e+04 </wgt>
<wgt id='1298'> +7.4517204e+04 </wgt>
<wgt id='1299'> +7.4498107e+04 </wgt>
<wgt id='1300'> +7.4463332e+04 </wgt>
<wgt id='1301'> +7.4513484e+04 </wgt>
<wgt id='1302'> +7.4476976e+04 </wgt>
<wgt id='1303'> +7.4480203e+04 </wgt>
<wgt id='1304'> +7.4437181e+04 </wgt>
<wgt id='1305'> +7.4401350e+04 </wgt>
<wgt id='1306'> +7.4394428e+04 </wgt>
<wgt id='1307'> +7.4511925e+04 </wgt>
<wgt id='1308'> +7.4385335e+04 </wgt>
<wgt id='1309'> +7.4467273e+04 </wgt>
<wgt id='1310'> +7.4365225e+04 </wgt>
<wgt id='1311'> +7.4457411e+04 </wgt>
<wgt id='1312'> +7.4450930e+04 </wgt>
<wgt id='1313'> +7.4509723e+04 </wgt>
<wgt id='1314'> +7.4499261e+04 </wgt>
<wgt id='1315'> +7.4432495e+04 </wgt>
<wgt id='1316'> +7.4493303e+04 </wgt>
<wgt id='1317'> +7.4454210e+04 </wgt>
<wgt id='1318'> +7.4435924e+04 </wgt>
<wgt id='1319'> +7.4411785e+04 </wgt>
<wgt id='1320'> +7.4369935e+04 </wgt>
<wgt id='1321'> +7.4480829e+04 </wgt>
<wgt id='1322'> +7.4476091e+04 </wgt>
<wgt id='1323'> +7.4507059e+04 </wgt>
<wgt id='1324'> +7.3804835e+04 </wgt>
<wgt id='1325'> +7.5215713e+04 </wgt>
<wgt id='1326'> +7.2206351e+04 </wgt>
<wgt id='1327'> +7.1289194e+04 </wgt>
<wgt id='1328'> +7.2923941e+04 </wgt>
<wgt id='1329'> +7.2290034e+04 </wgt>
<wgt id='1330'> +7.4155300e+04 </wgt>
<wgt id='1331'> +7.2440163e+04 </wgt>
<wgt id='1332'> +7.4616681e+04 </wgt>
<wgt id='1333'> +7.3069788e+04 </wgt>
<wgt id='1334'> +7.1211266e+04 </wgt>
<wgt id='1335'> +7.0745013e+04 </wgt>
<wgt id='1336'> +7.3064025e+04 </wgt>
<wgt id='1337'> +7.3837371e+04 </wgt>
<wgt id='1338'> +7.2098977e+04 </wgt>
<wgt id='1339'> +7.3243385e+04 </wgt>
<wgt id='1340'> +7.1976251e+04 </wgt>
<wgt id='1341'> +7.1858684e+04 </wgt>
<wgt id='1342'> +7.4437941e+04 </wgt>
<wgt id='1343'> +7.2604241e+04 </wgt>
<wgt id='1344'> +7.1694586e+04 </wgt>
<wgt id='1345'> +7.4626034e+04 </wgt>
<wgt id='1346'> +7.3097097e+04 </wgt>
<wgt id='1347'> +7.3997014e+04 </wgt>
<wgt id='1348'> +6.9614516e+04 </wgt>
<wgt id='1349'> +7.3441018e+04 </wgt>
<wgt id='1350'> +7.2684873e+04 </wgt>
<wgt id='1351'> +7.2098484e+04 </wgt>
<wgt id='1352'> +7.4259814e+04 </wgt>
<wgt id='1353'> +7.4718964e+04 </wgt>
<wgt id='1354'> +7.1431853e+04 </wgt>
<wgt id='1355'> +7.4019415e+04 </wgt>
<wgt id='1356'> +7.5063408e+04 </wgt>
<wgt id='1357'> +7.2561518e+04 </wgt>
<wgt id='1358'> +7.3090890e+04 </wgt>
<wgt id='1359'> +7.2787439e+04 </wgt>
<wgt id='1360'> +7.5042776e+04 </wgt>
<wgt id='1361'> +7.4292598e+04 </wgt>
<wgt id='1362'> +7.3071466e+04 </wgt>
<wgt id='1363'> +7.1304963e+04 </wgt>
<wgt id='1364'> +7.2074046e+04 </wgt>
<wgt id='1365'> +7.3018232e+04 </wgt>
<wgt id='1366'> +7.3405206e+04 </wgt>
<wgt id='1367'> +7.5248305e+04 </wgt>
<wgt id='1368'> +7.3117872e+04 </wgt>
<wgt id='1369'> +7.2961085e+04 </wgt>
<wgt id='1370'> +7.0329332e+04 </wgt>
<wgt id='1371'> +7.3625223e+04 </wgt>
<wgt id='1372'> +7.5264205e+04 </wgt>
<wgt id='1373'> +7.2049634e+04 </wgt>
<wgt id='1374'> +7.3348909e+04 </wgt>
<wgt id='1375'> +7.3510102e+04 </wgt>
<wgt id='1376'> +7.1707401e+04 </wgt>
<wgt id='1377'> +7.4873866e+04 </wgt>
<wgt id='1378'> +7.2566341e+04 </wgt>
<wgt id='1379'> +7.2683849e+04 </wgt>
<wgt id='1380'> +7.1606871e+04 </wgt>
<wgt id='1381'> +7.4128957e+04 </wgt>
<wgt id='1382'> +7.1451795e+04 </wgt>
<wgt id='1383'> +7.1606085e+04 </wgt>
<wgt id='1384'> +7.2875706e+04 </wgt>
<wgt id='1385'> +6.7487047e+04 </wgt>
<wgt id='1386'> +7.3984759e+04 </wgt>
<wgt id='1387'> +7.3964496e+04 </wgt>
<wgt id='1388'> +7.3581956e+04 </wgt>
<wgt id='1389'> +7.2547616e+04 </wgt>
<wgt id='1390'> +6.9058402e+04 </wgt>
<wgt id='1391'> +7.2042141e+04 </wgt>
<wgt id='1392'> +7.2305495e+04 </wgt>
<wgt id='1393'> +7.1955019e+04 </wgt>
<wgt id='1394'> +7.3018232e+04 </wgt>
<wgt id='1395'> +7.2526258e+04 </wgt>
<wgt id='1396'> +7.4168658e+04 </wgt>
<wgt id='1397'> +7.3423810e+04 </wgt>
<wgt id='1398'> +7.4916408e+04 </wgt>
<wgt id='1399'> +7.2824573e+04 </wgt>
<wgt id='1400'> +7.3244962e+04 </wgt>
<wgt id='1401'> +7.2337430e+04 </wgt>
<wgt id='1402'> +7.3055459e+04 </wgt>
<wgt id='1403'> +7.5095941e+04 </wgt>
<wgt id='1404'> +7.4435362e+04 </wgt>
<wgt id='1405'> +7.0799120e+04 </wgt>
<wgt id='1406'> +7.2704849e+04 </wgt>
<wgt id='1407'> +7.4625690e+04 </wgt>
<wgt id='1408'> +7.4209781e+04 </wgt>
<wgt id='1409'> +7.2457815e+04 </wgt>
<wgt id='1410'> +7.4091343e+04 </wgt>
<wgt id='1411'> +7.2269311e+04 </wgt>
<wgt id='1412'> +7.3416578e+04 </wgt>
<wgt id='1413'> +7.3039340e+04 </wgt>
<wgt id='1414'> +7.0358980e+04 </wgt>
<wgt id='1415'> +7.1088678e+04 </wgt>
<wgt id='1416'> +7.3031626e+04 </wgt>
<wgt id='1417'> +7.1959093e+04 </wgt>
<wgt id='1418'> +7.4974091e+04 </wgt>
<wgt id='1419'> +7.3323903e+04 </wgt>
<wgt id='1420'> +7.2063746e+04 </wgt>
<wgt id='1421'> +7.2134241e+04 </wgt>
<wgt id='1422'> +7.3446265e+04 </wgt>
<wgt id='1423'> +7.3868656e+04 </wgt>
<wgt id='1424'> +7.2193690e+04 </wgt>
<wgt id='1425'> +7.4242431e+04 </wgt>
<wgt id='1426'> +7.2414062e+04 </wgt>
<wgt id='1427'> +7.3333909e+04 </wgt>
<wgt id='1428'> +7.4240325e+04 </wgt>
<wgt id='1429'> +7.2704434e+04 </wgt>
<wgt id='1430'> +7.3099639e+04 </wgt>
<wgt id='1431'> +7.2920966e+04 </wgt>
<wgt id='1432'> +7.3075330e+04 </wgt>
<wgt id='1433'> +7.3055865e+04 </wgt>
<wgt id='1434'> +7.2939188e+04 </wgt>
<wgt id='1435'> +7.2753682e+04 </wgt>
<wgt id='1436'> +7.2378404e+04 </wgt>
<wgt id='1437'> +7.3262298e+04 </wgt>
<wgt id='1438'> +7.2984924e+04 </wgt>
<wgt id='1439'> +7.2277782e+04 </wgt>
<wgt id='1440'> +7.3033671e+04 </wgt>
<wgt id='1441'> +7.2927489e+04 </wgt>
<wgt id='1442'> +7.2721214e+04 </wgt>
<wgt id='1443'> +7.2826978e+04 </wgt>
<wgt id='1444'> +7.2607226e+04 </wgt>
<wgt id='1445'> +7.2333459e+04 </wgt>
<wgt id='1446'> +7.3083772e+04 </wgt>
<wgt id='1447'> +7.2793533e+04 </wgt>
<wgt id='1448'> +7.2999352e+04 </wgt>
<wgt id='1449'> +7.2871132e+04 </wgt>
<wgt id='1450'> +7.2801873e+04 </wgt>
<wgt id='1451'> +7.2839581e+04 </wgt>
<wgt id='1452'> +7.2840717e+04 </wgt>
<wgt id='1453'> +7.2821593e+04 </wgt>
<wgt id='1454'> +7.2934738e+04 </wgt>
<wgt id='1455'> +7.2745686e+04 </wgt>
<wgt id='1456'> +7.2875195e+04 </wgt>
<wgt id='1457'> +7.2757306e+04 </wgt>
<wgt id='1458'> +7.2950366e+04 </wgt>
<wgt id='1459'> +7.2940187e+04 </wgt>
<wgt id='1460'> +7.2779791e+04 </wgt>
<wgt id='1461'> +7.2920803e+04 </wgt>
<wgt id='1462'> +7.2842252e+04 </wgt>
<wgt id='1463'> +7.2882545e+04 </wgt>
<wgt id='1464'> +7.2849574e+04 </wgt>
<wgt id='1465'> +7.2935611e+04 </wgt>
<wgt id='1466'> +7.2886983e+04 </wgt>
<wgt id='1467'> +7.2869522e+04 </wgt>
<wgt id='1468'> +7.2872666e+04 </wgt>
<wgt id='1469'> +7.2948890e+04 </wgt>
<wgt id='1470'> +7.2909687e+04 </wgt>
<wgt id='1471'> +7.2921362e+04 </wgt>
<wgt id='1472'> +7.2855607e+04 </wgt>
<wgt id='1473'> +7.2945798e+04 </wgt>
<wgt id='1474'> +7.2941280e+04 </wgt>
<wgt id='1475'> +7.2957502e+04 </wgt>
<wgt id='1476'> +7.2946035e+04 </wgt>
<wgt id='1477'> +7.2941121e+04 </wgt>
<wgt id='1478'> +7.2990896e+04 </wgt>
<wgt id='1479'> +7.2914458e+04 </wgt>
<wgt id='1480'> +7.2870042e+04 </wgt>
<wgt id='1481'> +7.2936018e+04 </wgt>
<wgt id='1482'> +7.2704434e+04 </wgt>
<wgt id='1483'> +7.3099639e+04 </wgt>
<wgt id='1484'> +7.2803496e+04 </wgt>
<wgt id='1485'> +7.2681908e+04 </wgt>
<wgt id='1486'> +7.3690442e+04 </wgt>
<wgt id='1487'> +7.2187447e+04 </wgt>
<wgt id='1488'> +7.3613332e+04 </wgt>
<wgt id='1489'> +7.2458152e+04 </wgt>
<wgt id='1490'> +7.0722644e+04 </wgt>
<wgt id='1491'> +7.2045897e+04 </wgt>
<wgt id='1492'> +7.1659671e+04 </wgt>
<wgt id='1493'> +7.2684055e+04 </wgt>
<wgt id='1494'> +7.3393424e+04 </wgt>
<wgt id='1495'> +7.0746531e+04 </wgt>
<wgt id='1496'> +7.1060376e+04 </wgt>
<wgt id='1497'> +7.1241158e+04 </wgt>
<wgt id='1498'> +7.4170551e+04 </wgt>
<wgt id='1499'> +7.4040251e+04 </wgt>
<wgt id='1500'> +7.1248459e+04 </wgt>
<wgt id='1501'> +7.2500213e+04 </wgt>
<wgt id='1502'> +7.2860069e+04 </wgt>
<wgt id='1503'> +7.2834407e+04 </wgt>
<wgt id='1504'> +7.3070972e+04 </wgt>
<wgt id='1505'> +7.3178016e+04 </wgt>
<wgt id='1506'> +7.2669577e+04 </wgt>
<wgt id='1507'> +7.2066039e+04 </wgt>
<wgt id='1508'> +7.1843597e+04 </wgt>
<wgt id='1509'> +7.3857915e+04 </wgt>
<wgt id='1510'> +7.4912037e+04 </wgt>
<wgt id='1511'> +7.3140941e+04 </wgt>
<wgt id='1512'> +7.3554545e+04 </wgt>
<wgt id='1513'> +7.2160497e+04 </wgt>
<wgt id='1514'> +7.2188362e+04 </wgt>
<wgt id='1515'> +7.3403515e+04 </wgt>
<wgt id='1516'> +7.3637862e+04 </wgt>
<wgt id='1517'> +7.3674592e+04 </wgt>
<wgt id='1518'> +7.2608712e+04 </wgt>
<wgt id='1519'> +7.2341846e+04 </wgt>
<wgt id='1520'> +7.3520731e+04 </wgt>
<wgt id='1521'> +7.3054948e+04 </wgt>
<wgt id='1522'> +7.4351865e+04 </wgt>
<wgt id='1523'> +7.3202662e+04 </wgt>
<wgt id='1524'> +7.3552576e+04 </wgt>
<wgt id='1525'> +7.2028120e+04 </wgt>
<wgt id='1526'> +7.1769255e+04 </wgt>
<wgt id='1527'> +7.3249323e+04 </wgt>
<wgt id='1528'> +7.2550423e+04 </wgt>
<wgt id='1529'> +7.3134016e+04 </wgt>
<wgt id='1530'> +7.2434654e+04 </wgt>
<wgt id='1531'> +7.2816865e+04 </wgt>
<wgt id='1532'> +7.3668969e+04 </wgt>
<wgt id='1533'> +7.4233972e+04 </wgt>
<wgt id='1534'> +7.2933057e+04 </wgt>
<wgt id='1535'> +7.4178622e+04 </wgt>
<wgt id='1536'> +7.1620977e+04 </wgt>
<wgt id='1537'> +7.3092412e+04 </wgt>
<wgt id='1538'> +7.2378237e+04 </wgt>
<wgt id='1539'> +7.3094844e+04 </wgt>
<wgt id='1540'> +7.3988958e+04 </wgt>
<wgt id='1541'> +7.2684968e+04 </wgt>
<wgt id='1542'> +7.2760375e+04 </wgt>
<wgt id='1543'> +7.3712775e+04 </wgt>
<wgt id='1544'> +7.2611478e+04 </wgt>
<wgt id='1545'> +7.3266737e+04 </wgt>
<wgt id='1546'> +7.1669377e+04 </wgt>
<wgt id='1547'> +7.2545025e+04 </wgt>
<wgt id='1548'> +7.3803821e+04 </wgt>
<wgt id='1549'> +7.4224452e+04 </wgt>
<wgt id='1550'> +7.4925786e+04 </wgt>
<wgt id='1551'> +7.3858895e+04 </wgt>
<wgt id='1552'> +7.2407647e+04 </wgt>
<wgt id='1553'> +7.4147115e+04 </wgt>
<wgt id='1554'> +7.2743261e+04 </wgt>
<wgt id='1555'> +7.1548788e+04 </wgt>
<wgt id='1556'> +7.0093175e+04 </wgt>
<wgt id='1557'> +7.3421008e+04 </wgt>
<wgt id='1558'> +7.2451458e+04 </wgt>
<wgt id='1559'> +7.3970014e+04 </wgt>
<wgt id='1560'> +7.4007421e+04 </wgt>
<wgt id='1561'> +7.3557309e+04 </wgt>
<wgt id='1562'> +7.3047590e+04 </wgt>
<wgt id='1563'> +7.3165488e+04 </wgt>
<wgt id='1564'> +7.3237739e+04 </wgt>
<wgt id='1565'> +7.3460798e+04 </wgt>
<wgt id='1566'> +7.1468238e+04 </wgt>
<wgt id='1567'> +7.2389193e+04 </wgt>
<wgt id='1568'> +7.2566895e+04 </wgt>
<wgt id='1569'> +7.2473056e+04 </wgt>
<wgt id='1570'> +7.2427221e+04 </wgt>
<wgt id='1571'> +7.1442214e+04 </wgt>
<wgt id='1572'> +7.2611444e+04 </wgt>
<wgt id='1573'> +7.2336685e+04 </wgt>
<wgt id='1574'> +7.0928435e+04 </wgt>
<wgt id='1575'> +7.2484453e+04 </wgt>
<wgt id='1576'> +7.2545048e+04 </wgt>
<wgt id='1577'> +7.0772093e+04 </wgt>
<wgt id='1578'> +7.4004090e+04 </wgt>
<wgt id='1579'> +7.1169640e+04 </wgt>
<wgt id='1580'> +7.2999180e+04 </wgt>
<wgt id='1581'> +7.4168169e+04 </wgt>
<wgt id='1582'> +7.3471213e+04 </wgt>
<wgt id='1583'> +7.2190195e+04 </wgt>
<wgt id='1584'> +7.1479254e+04 </wgt>
<wgt id='1585'> +7.3294967e+04 </wgt>
<wgt id='1586'> +7.9427920e+04 </wgt>
<wgt id='1587'> +7.2782232e+04 </wgt>
<wgt id='1588'> +7.2704434e+04 </wgt>
<wgt id='1589'> +7.2630690e+04 </wgt>
<wgt id='1590'> +7.2822781e+04 </wgt>
<wgt id='1591'> +7.3099639e+04 </wgt>
<wgt id='1592'> +7.2931900e+04 </wgt>
<wgt id='1593'> +7.3610419e+04 </wgt>
<wgt id='1594'> +7.3343810e+04 </wgt>
<wgt id='1595'> +7.3053921e+04 </wgt>
<wgt id='1596'> +7.3461604e+04 </wgt>
<wgt id='1597'> +7.3772075e+04 </wgt>
<wgt id='1598'> +7.2462317e+04 </wgt>
<wgt id='1599'> +7.4584601e+04 </wgt>
<wgt id='1600'> +7.3142661e+04 </wgt>
<wgt id='1601'> +7.4181514e+04 </wgt>
<wgt id='1602'> +7.3146371e+04 </wgt>
<wgt id='1603'> +7.4180026e+04 </wgt>
<wgt id='1604'> +7.4574062e+04 </wgt>
<wgt id='1605'> +7.3463359e+04 </wgt>
<wgt id='1606'> +7.2942530e+04 </wgt>
<wgt id='1607'> +7.3889502e+04 </wgt>
<wgt id='1608'> +7.3304800e+04 </wgt>
<wgt id='1609'> +7.3019559e+04 </wgt>
<wgt id='1610'> +7.4294756e+04 </wgt>
<wgt id='1611'> +7.2877166e+04 </wgt>
<wgt id='1612'> +7.4843030e+04 </wgt>
<wgt id='1613'> +7.1694456e+04 </wgt>
<wgt id='1614'> +7.3510706e+04 </wgt>
<wgt id='1615'> +7.3850765e+04 </wgt>
<wgt id='1616'> +7.3169329e+04 </wgt>
<wgt id='1617'> +7.3567392e+04 </wgt>
<wgt id='1618'> +7.3541988e+04 </wgt>
<wgt id='1619'> +7.3823482e+04 </wgt>
<wgt id='1620'> +7.2972182e+04 </wgt>
<wgt id='1621'> +7.3953551e+04 </wgt>
<wgt id='1622'> +7.3252418e+04 </wgt>
<wgt id='1623'> +7.3160097e+04 </wgt>
<wgt id='1624'> +7.4193700e+04 </wgt>
<wgt id='1625'> +7.2283997e+04 </wgt>
<wgt id='1626'> +7.2877985e+04 </wgt>
<wgt id='1627'> +7.4119409e+04 </wgt>
<wgt id='1628'> +7.2346084e+04 </wgt>
<wgt id='1629'> +7.4365143e+04 </wgt>
<wgt id='1630'> +7.2548249e+04 </wgt>
<wgt id='1631'> +7.4177035e+04 </wgt>
<wgt id='1632'> +7.3155396e+04 </wgt>
<wgt id='1633'> +7.3930752e+04 </wgt>
<wgt id='1634'> +7.4474940e+04 </wgt>
<wgt id='1635'> +7.2629976e+04 </wgt>
<wgt id='1636'> +7.4036675e+04 </wgt>
<wgt id='1637'> +7.3281784e+04 </wgt>
<wgt id='1638'> +7.3669569e+04 </wgt>
<wgt id='1639'> +7.3538789e+04 </wgt>
<wgt id='1640'> +7.3374235e+04 </wgt>
<wgt id='1641'> +7.3326678e+04 </wgt>
<wgt id='1642'> +7.3721585e+04 </wgt>
<wgt id='1643'> +7.3126757e+04 </wgt>
<wgt id='1644'> +7.3800691e+04 </wgt>
<wgt id='1645'> +7.3266797e+04 </wgt>
<wgt id='1646'> +7.4099034e+04 </wgt>
<wgt id='1647'> +7.3273015e+04 </wgt>
<wgt id='1648'> +7.3001563e+04 </wgt>
<wgt id='1649'> +7.3334681e+04 </wgt>
<wgt id='1650'> +7.3744003e+04 </wgt>
<wgt id='1651'> +7.3468405e+04 </wgt>
<wgt id='1652'> +7.4459740e+04 </wgt>
<wgt id='1653'> +7.4045700e+04 </wgt>
<wgt id='1654'> +7.3164575e+04 </wgt>
<wgt id='1655'> +7.2721128e+04 </wgt>
<wgt id='1656'> +7.4736353e+04 </wgt>
<wgt id='1657'> +7.4362643e+04 </wgt>
<wgt id='1658'> +7.4359811e+04 </wgt>
<wgt id='1659'> +7.5182244e+04 </wgt>
<wgt id='1660'> +7.5512728e+04 </wgt>
<wgt id='1661'> +7.4979453e+04 </wgt>
<wgt id='1662'> +7.3894815e+04 </wgt>
<wgt id='1663'> +7.4247975e+04 </wgt>
<wgt id='1664'> +7.4359481e+04 </wgt>
<wgt id='1665'> +7.4231106e+04 </wgt>
<wgt id='1666'> +7.5431587e+04 </wgt>
<wgt id='1667'> +7.4809906e+04 </wgt>
<wgt id='1668'> +7.4854901e+04 </wgt>
<wgt id='1669'> +7.5350372e+04 </wgt>
<wgt id='1670'> +7.4255071e+04 </wgt>
<wgt id='1671'> +7.5444894e+04 </wgt>
<wgt id='1672'> +7.4309761e+04 </wgt>
<wgt id='1673'> +7.5244845e+04 </wgt>
<wgt id='1674'> +7.5020604e+04 </wgt>
<wgt id='1675'> +7.5175068e+04 </wgt>
<wgt id='1676'> +7.3966272e+04 </wgt>
<wgt id='1677'> +7.5349844e+04 </wgt>
<wgt id='1678'> +7.4667397e+04 </wgt>
<wgt id='1679'> +7.3852514e+04 </wgt>
<wgt id='1680'> +7.6039961e+04 </wgt>
<wgt id='1681'> +7.4572453e+04 </wgt>
<wgt id='1682'> +7.4439835e+04 </wgt>
<wgt id='1683'> +7.4122948e+04 </wgt>
<wgt id='1684'> +7.5175381e+04 </wgt>
<wgt id='1685'> +7.5207388e+04 </wgt>
<wgt id='1686'> +7.3979323e+04 </wgt>
<wgt id='1687'> +7.4685582e+04 </wgt>
<wgt id='1688'> +7.4612960e+04 </wgt>
<wgt id='1689'> +7.4041770e+04 </wgt>
<wgt id='1690'> +7.6273997e+04 </wgt>
<wgt id='1691'> +7.4101237e+04 </wgt>
<wgt id='1692'> +7.4948363e+04 </wgt>
<wgt id='1693'> +7.4564177e+04 </wgt>
<wgt id='1694'> +7.5340145e+04 </wgt>
<wgt id='1695'> +7.4362078e+04 </wgt>
<wgt id='1696'> +7.4673745e+04 </wgt>
<wgt id='1697'> +7.4575022e+04 </wgt>
<wgt id='1698'> +7.4630468e+04 </wgt>
<wgt id='1699'> +7.3955453e+04 </wgt>
<wgt id='1700'> +7.5433157e+04 </wgt>
<wgt id='1701'> +7.3944475e+04 </wgt>
<wgt id='1702'> +7.5675720e+04 </wgt>
<wgt id='1703'> +7.4127543e+04 </wgt>
<wgt id='1704'> +7.5621785e+04 </wgt>
<wgt id='1705'> +7.4029450e+04 </wgt>
<wgt id='1706'> +7.5481362e+04 </wgt>
<wgt id='1707'> +7.2872893e+04 </wgt>
<wgt id='1708'> +7.6028596e+04 </wgt>
<wgt id='1709'> +7.4776887e+04 </wgt>
<wgt id='1710'> +7.4508998e+04 </wgt>
<wgt id='1711'> +7.4487865e+04 </wgt>
<wgt id='1712'> +7.4302945e+04 </wgt>
<wgt id='1713'> +7.4329692e+04 </wgt>
<wgt id='1714'> +7.4810374e+04 </wgt>
<wgt id='1715'> +7.2797117e+04 </wgt>
<wgt id='1716'> +7.4467466e+04 </wgt>
<wgt id='1717'> +7.1144469e+04 </wgt>
<wgt id='1718'> +7.0922790e+04 </wgt>
<wgt id='1719'> +7.1428614e+04 </wgt>
<wgt id='1720'> +7.1141650e+04 </wgt>
<wgt id='1721'> +7.1147043e+04 </wgt>
<wgt id='1722'> +7.1198184e+04 </wgt>
<wgt id='1723'> +7.1056511e+04 </wgt>
<wgt id='1724'> +7.1316609e+04 </wgt>
<wgt id='1725'> +7.1004538e+04 </wgt>
<wgt id='1726'> +7.1224326e+04 </wgt>
<wgt id='1727'> +7.1062089e+04 </wgt>
<wgt id='1728'> +7.0679049e+04 </wgt>
<wgt id='1729'> +7.1593110e+04 </wgt>
<wgt id='1730'> +7.1161869e+04 </wgt>
<wgt id='1731'> +7.1131742e+04 </wgt>
<wgt id='1732'> +7.1299664e+04 </wgt>
<wgt id='1733'> +7.1299664e+04 </wgt>
<wgt id='1734'> +7.1070673e+04 </wgt>
<wgt id='1735'> +7.1192266e+04 </wgt>
<wgt id='1736'> +7.1035986e+04 </wgt>
<wgt id='1737'> +7.1293660e+04 </wgt>
<wgt id='1738'> +7.1140311e+04 </wgt>
<wgt id='1739'> +7.1142392e+04 </wgt>
<wgt id='1740'> +7.1114540e+04 </wgt>
<wgt id='1741'> +7.1212154e+04 </wgt>
<wgt id='1742'> +7.0850394e+04 </wgt>
<wgt id='1743'> +7.1480293e+04 </wgt>
<wgt id='1744'> +7.1334340e+04 </wgt>
<wgt id='1745'> +7.0627324e+04 </wgt>
<wgt id='1746'> +7.0642988e+04 </wgt>
<wgt id='1747'> +7.1427336e+04 </wgt>
<wgt id='1748'> +7.1529141e+04 </wgt>
<wgt id='1749'> +6.9994512e+04 </wgt>
<wgt id='1750'> +7.1204997e+04 </wgt>
<wgt id='1751'> +7.1080561e+04 </wgt>
<wgt id='1752'> +7.0904650e+04 </wgt>
<wgt id='1753'> +7.1473223e+04 </wgt>
<wgt id='1754'> +7.1373143e+04 </wgt>
<wgt id='1755'> +7.1015840e+04 </wgt>
<wgt id='1756'> +7.0566776e+04 </wgt>
<wgt id='1757'> +7.2557201e+04 </wgt>
<wgt id='1758'> +7.1500665e+04 </wgt>
<wgt id='1759'> +7.0718763e+04 </wgt>
<wgt id='1760'> +7.1698201e+04 </wgt>
<wgt id='1761'> +7.0612276e+04 </wgt>
<wgt id='1762'> +7.0983644e+04 </wgt>
<wgt id='1763'> +7.1311177e+04 </wgt>
<wgt id='1764'> +7.1098585e+04 </wgt>
<wgt id='1765'> +7.1283463e+04 </wgt>
<wgt id='1766'> +7.1064622e+04 </wgt>
<wgt id='1767'> +7.1195936e+04 </wgt>
<wgt id='1768'> +7.1048882e+04 </wgt>
<wgt id='1769'> +7.1214464e+04 </wgt>
<wgt id='1770'> +7.1010587e+04 </wgt>
<wgt id='1771'> +7.1158257e+04 </wgt>
<wgt id='1772'> +7.1136760e+04 </wgt>
<wgt id='1773'> +7.1300268e+04 </wgt>
<wgt id='1774'> +7.0369902e+04 </wgt>
<wgt id='1775'> +7.1628050e+04 </wgt>
<wgt id='1776'> +7.0707674e+04 </wgt>
<wgt id='1777'> +7.1347673e+04 </wgt>
<wgt id='1778'> +7.0844076e+04 </wgt>
<wgt id='1779'> +7.1096580e+04 </wgt>
<wgt id='1780'> +7.1448558e+04 </wgt>
<wgt id='1781'> +7.1120723e+04 </wgt>
<wgt id='1782'> +7.1144469e+04 </wgt>
<wgt id='1783'> +7.1241263e+04 </wgt>
<wgt id='1784'> +7.2336180e+04 </wgt>
<wgt id='1785'> +7.2242304e+04 </wgt>
<wgt id='1786'> +7.1765523e+04 </wgt>
<wgt id='1787'> +7.2312205e+04 </wgt>
<wgt id='1788'> +7.2333423e+04 </wgt>
<wgt id='1789'> +7.2391137e+04 </wgt>
<wgt id='1790'> +7.2135261e+04 </wgt>
<wgt id='1791'> +7.2277272e+04 </wgt>
<wgt id='1792'> +7.1714910e+04 </wgt>
<wgt id='1793'> +7.2576591e+04 </wgt>
<wgt id='1794'> +7.2700701e+04 </wgt>
<wgt id='1795'> +7.2162389e+04 </wgt>
<wgt id='1796'> +7.2367453e+04 </wgt>
<wgt id='1797'> +7.2757192e+04 </wgt>
<wgt id='1798'> +7.2415870e+04 </wgt>
<wgt id='1799'> +7.2940248e+04 </wgt>
<wgt id='1800'> +7.2858174e+04 </wgt>
<wgt id='1801'> +7.3100636e+04 </wgt>
<wgt id='1802'> +7.2679990e+04 </wgt>
<wgt id='1803'> +7.2499012e+04 </wgt>
<wgt id='1804'> +7.2287820e+04 </wgt>
<wgt id='1805'> +7.1985280e+04 </wgt>
<wgt id='1806'> +7.2277933e+04 </wgt>
<wgt id='1807'> +7.2454334e+04 </wgt>
<wgt id='1808'> +7.2385452e+04 </wgt>
<wgt id='1809'> +7.1765374e+04 </wgt>
<wgt id='1810'> +7.2228357e+04 </wgt>
<wgt id='1811'> +7.2131523e+04 </wgt>
<wgt id='1812'> +7.2240469e+04 </wgt>
<wgt id='1813'> +7.1648738e+04 </wgt>
<wgt id='1814'> +7.2333487e+04 </wgt>
<wgt id='1815'> +7.2228740e+04 </wgt>
<wgt id='1816'> +7.2277387e+04 </wgt>
<wgt id='1817'> +7.2233000e+04 </wgt>
<wgt id='1818'> +7.2400351e+04 </wgt>
<wgt id='1819'> +7.2158230e+04 </wgt>
<wgt id='1820'> +7.2239581e+04 </wgt>
<wgt id='1821'> +7.2275434e+04 </wgt>
<wgt id='1822'> +7.2405110e+04 </wgt>
<wgt id='1823'> +7.2160968e+04 </wgt>
<wgt id='1824'> +7.3102448e+04 </wgt>
<wgt id='1825'> +7.2304683e+04 </wgt>
<wgt id='1826'> +7.2801552e+04 </wgt>
<wgt id='1827'> +7.2902425e+04 </wgt>
<wgt id='1828'> +7.2916117e+04 </wgt>
<wgt id='1829'> +7.2861121e+04 </wgt>
<wgt id='1830'> +7.2936779e+04 </wgt>
<wgt id='1831'> +7.2840201e+04 </wgt>
<wgt id='1832'> +7.3001739e+04 </wgt>
<wgt id='1833'> +7.2775593e+04 </wgt>
<wgt id='1834'> +7.2769578e+04 </wgt>
<wgt id='1835'> +7.3004408e+04 </wgt>
<wgt id='1836'> +7.3036375e+04 </wgt>
<wgt id='1837'> +7.2737950e+04 </wgt>
<wgt id='1838'> +7.2878662e+04 </wgt>
<wgt id='1839'> +7.2872250e+04 </wgt>
<wgt id='1840'> +7.2774772e+04 </wgt>
<wgt id='1841'> +7.3004307e+04 </wgt>
<wgt id='1842'> +7.2891167e+04 </wgt>
<wgt id='1843'> +7.2964975e+04 </wgt>
<wgt id='1844'> +7.2500320e+04 </wgt>
<wgt id='1845'> +7.3257413e+04 </wgt>
<wgt id='1846'> +7.2032026e+04 </wgt>
<wgt id='1847'> +7.3676582e+04 </wgt>
<wgt id='1848'> +7.2887645e+04 </wgt>
<wgt id='1849'> +7.2801966e+04 </wgt>
<wgt id='1850'> +7.3480039e+04 </wgt>
<wgt id='1851'> +7.2322163e+04 </wgt>
<wgt id='1852'> +7.3624448e+04 </wgt>
<wgt id='1853'> +7.2138658e+04 </wgt>
<wgt id='1854'> +7.3433784e+04 </wgt>
<wgt id='1855'> +7.2439267e+04 </wgt>
<wgt id='1856'> +7.1575772e+04 </wgt>
<wgt id='1857'> +7.1563966e+04 </wgt>
<wgt id='1858'> +7.1589623e+04 </wgt>
<wgt id='1859'> +7.1529200e+04 </wgt>
<wgt id='1860'> +7.1576621e+04 </wgt>
<wgt id='1861'> +7.1582788e+04 </wgt>
<wgt id='1862'> +7.1337216e+04 </wgt>
<wgt id='1863'> +7.1555483e+04 </wgt>
<wgt id='1864'> +7.1634374e+04 </wgt>
<wgt id='1865'> +7.1412888e+04 </wgt>
<wgt id='1866'> +7.1619461e+04 </wgt>
<wgt id='1867'> +7.1602596e+04 </wgt>
<wgt id='1868'> +7.1736201e+04 </wgt>
<wgt id='1869'> +7.1642363e+04 </wgt>
<wgt id='1870'> +7.1497471e+04 </wgt>
<wgt id='1871'> +7.1399860e+04 </wgt>
<wgt id='1872'> +7.1409972e+04 </wgt>
<wgt id='1873'> +7.1536753e+04 </wgt>
<wgt id='1874'> +7.1467707e+04 </wgt>
<wgt id='1875'> +7.1697899e+04 </wgt>
<wgt id='1876'> +7.1462946e+04 </wgt>
<wgt id='1877'> +7.1400807e+04 </wgt>
<wgt id='1878'> +7.1385526e+04 </wgt>
<wgt id='1879'> +7.2201026e+04 </wgt>
<wgt id='1880'> +7.1965486e+04 </wgt>
<wgt id='1881'> +7.1642863e+04 </wgt>
<wgt id='1882'> +7.1644285e+04 </wgt>
<wgt id='1883'> +7.1851946e+04 </wgt>
<wgt id='1884'> +7.0879031e+04 </wgt>
<wgt id='1885'> +7.0924667e+04 </wgt>
<wgt id='1886'> +8.5566565e+04 </wgt>
<wgt id='1887'> +9.2386396e+04 </wgt>
<wgt id='1888'> +8.0574845e+04 </wgt>
<wgt id='1889'> +9.2393448e+04 </wgt>
</rwgt>
</event>
<event npLO=" -1 " npNLO=" 0 ">
 5      0 +7.4519530e+04 1.31490280e+01 7.55820760e-03 1.19482730e-01
       -3 -1    0    0    0  501 +0.0000000000e+00 +0.0000000000e+00 +7.8116427100e+01 7.8116427100e+01 0.0000000000e+00 0.0000e+00 1.0000e+00
        4 -1    0    0  501    0 +0.0000000000e+00 +0.0000000000e+00 -2.1804283785e+01 2.1804283785e+01 0.0000000000e+00 0.0000e+00 -1.0000e+00
       24  2    1    2    0    0 +0.0000000000e+00 +0.0000000000e+00 +5.6312143315e+01 9.9920710885e+01 8.2541450066e+01 0.0000e+00 0.0000e+00
      -13  1    3    3    0    0 -9.6184170213e+00 +2.3341511021e+01 +6.7678926377e+01 7.2234182755e+01 0.0000000000e+00 0.0000e+00 1.0000e+00
       14  1    3    3    0    0 +9.6184170213e+00 -2.3341511021e+01 -1.1366783062e+01 2.7686528130e+01 0.0000000000e+00 0.0000e+00 -1.0000e+00
#aMCatNLO 1  0  0  2  1 0.19365764E+02 0.00000000E+00 -9  5  0 0.00000000E+00 0.00000000E+00 0.00000000E+00 0.00000000E+00 0.00000000E+00
<rwgt>
<wgt id='1001'> +7.4519530e+04 </wgt>
<wgt id='1002'> +7.9291402e+04 </wgt>
<wgt id='1003'> +6.8573512e+04 </wgt>
<wgt id='1004'> +6.8399022e+04 </wgt>
<wgt id='1005'> +7.5744315e+04 </wgt>
<wgt id='1006'> +5.9248800e+04 </wgt>
<wgt id='1007'> +8.0916684e+04 </wgt>
<wgt id='1008'> +8.2958829e+04 </wgt>
<wgt id='1009'> +7.8369562e+04 </wgt>
<wgt id='1010'> +7.4519530e+04 </wgt>
<wgt id='1011'> +7.5093307e+04 </wgt>
<wgt id='1012'> +7.4674484e+04 </wgt>
<wgt id='1013'> +7.5707287e+04 </wgt>
<wgt id='1014'> +7.4135032e+04 </wgt>
<wgt id='1015'> +7.4915674e+04 </wgt>
<wgt id='1016'> +7.4356896e+04 </wgt>
<wgt id='1017'> +7.4174183e+04 </wgt>
<wgt id='1018'> +7.4319577e+04 </wgt>
<wgt id='1019'> +7.3621204e+04 </wgt>
<wgt id='1020'> +7.5253716e+04 </wgt>
<wgt id='1021'> +7.5426777e+04 </wgt>
<wgt id='1022'> +7.3803595e+04 </wgt>
<wgt id='1023'> +7.3716011e+04 </wgt>
<wgt id='1024'> +7.3519985e+04 </wgt>
<wgt id='1025'> +7.3099279e+04 </wgt>
<wgt id='1026'> +7.4970135e+04 </wgt>
<wgt id='1027'> +7.4659995e+04 </wgt>
<wgt id='1028'> +7.6161841e+04 </wgt>
<wgt id='1029'> +7.4337360e+04 </wgt>
<wgt id='1030'> +7.4369847e+04 </wgt>
<wgt id='1031'> +7.5099261e+04 </wgt>
<wgt id='1032'> +7.3674160e+04 </wgt>
<wgt id='1033'> +7.5520149e+04 </wgt>
<wgt id='1034'> +7.6241679e+04 </wgt>
<wgt id='1035'> +7.5526651e+04 </wgt>
<wgt id='1036'> +7.5394184e+04 </wgt>
<wgt id='1037'> +7.2918638e+04 </wgt>
<wgt id='1038'> +7.3571541e+04 </wgt>
<wgt id='1039'> +7.5314168e+04 </wgt>
<wgt id='1040'> +7.3995557e+04 </wgt>
<wgt id='1041'> +7.4059106e+04 </wgt>
<wgt id='1042'> +7.4770855e+04 </wgt>
<wgt id='1043'> +7.4508191e+04 </wgt>
<wgt id='1044'> +7.4522898e+04 </wgt>
<wgt id='1045'> +7.4146502e+04 </wgt>
<wgt id='1046'> +7.3921455e+04 </wgt>
<wgt id='1047'> +7.4224031e+04 </wgt>
<wgt id='1048'> +7.4121926e+04 </wgt>
<wgt id='1049'> +7.4226686e+04 </wgt>
<wgt id='1050'> +7.3846699e+04 </wgt>
<wgt id='1051'> +7.3911821e+04 </wgt>
<wgt id='1052'> +7.4506637e+04 </wgt>
<wgt id='1053'> +7.5051471e+04 </wgt>
<wgt id='1054'> +7.3984932e+04 </wgt>
<wgt id='1055'> +7.4262799e+04 </wgt>
<wgt id='1056'> +7.4650498e+04 </wgt>
<wgt id='1057'> +7.4484525e+04 </wgt>
<wgt id='1058'> +7.4860742e+04 </wgt>
<wgt id='1059'> +7.4627127e+04 </wgt>
<wgt id='1060'> +7.4866041e+04 </wgt>
<wgt id='1061'> +7.4361124e+04 </wgt>
<wgt id='1062'> +7.4330010e+04 </wgt>
<wgt id='1063'> +7.4609126e+04 </wgt>
<wgt id='1064'> +7.4931733e+04 </wgt>
<wgt id='1065'> +7.4819549e+04 </wgt>
<wgt id='1066'> +7.4475734e+04 </wgt>
<wgt id='1067'> +7.4438769e+04 </wgt>
<wgt id='1068'> +7.4680478e+04 </wgt>
<wgt id='1069'> +7.4153362e+04 </wgt>
<wgt id='1070'> +7.4576839e+04 </wgt>
<wgt id='1071'> +7.4553101e+04 </wgt>
<wgt id='1072'> +7.4190752e+04 </wgt>
<wgt id='1073'> +7.4428976e+04 </wgt>
<wgt id='1074'> +7.4647607e+04 </wgt>
<wgt id='1075'> +7.4563186e+04 </wgt>
<wgt id='1076'> +7.4733530e+04 </wgt>
<wgt id='1077'> +7.4169431e+04 </wgt>
<wgt id='1078'> +7.4406317e+04 </wgt>
<wgt id='1079'> +7.4743283e+04 </wgt>
<wgt id='1080'> +7.4618655e+04 </wgt>
<wgt id='1081'> +7.4577781e+04 </wgt>
<wgt id='1082'> +7.4701124e+04 </wgt>
<wgt id='1083'> +7.4460055e+04 </wgt>
<wgt id='1084'> +7.4478119e+04 </wgt>
<wgt id='1085'> +7.4442536e+04 </wgt>
<wgt id='1086'> +7.4735622e+04 </wgt>
<wgt id='1087'> +7.4592085e+04 </wgt>
<wgt id='1088'> +7.4343428e+04 </wgt>
<wgt id='1089'> +7.4291821e+04 </wgt>
<wgt id='1090'> +7.4816807e+04 </wgt>
<wgt id='1091'> +7.4233858e+04 </wgt>
<wgt id='1092'> +7.4188928e+04 </wgt>
<wgt id='1093'> +7.4597404e+04 </wgt>
<wgt id='1094'> +7.4601152e+04 </wgt>
<wgt id='1095'> +7.4552930e+04 </wgt>
<wgt id='1096'> +7.4583340e+04 </wgt>
<wgt id='1097'> +7.4511473e+04 </wgt>
<wgt id='1098'> +7.4784023e+04 </wgt>
<wgt id='1099'> +7.4565087e+04 </wgt>
<wgt id='1100'> +7.4447910e+04 </wgt>
<wgt id='1101'> +7.4619327e+04 </wgt>
<wgt id='1102'> +7.4725955e+04 </wgt>
<wgt id='1103'> +7.4581686e+04 </wgt>
<wgt id='1104'> +7.4246175e+04 </wgt>
<wgt id='1105'> +7.4451937e+04 </wgt>
<wgt id='1106'> +7.4439789e+04 </wgt>
<wgt id='1107'> +7.4690953e+04 </wgt>
<wgt id='1108'> +7.4532919e+04 </wgt>
<wgt id='1109'> +7.4331631e+04 </wgt>
<wgt id='1110'> +7.4519524e+04 </wgt>
<wgt id='1111'> +7.0465706e+04 </wgt>
<wgt id='1112'> +7.7782725e+04 </wgt>
<wgt id='1113'> +7.4519524e+04 </wgt>
<wgt id='1114'> +6.1283654e+04 </wgt>
<wgt id='1115'> +7.9444152e+04 </wgt>
<wgt id='1116'> +8.0741286e+04 </wgt>
<wgt id='1117'> +7.4630348e+04 </wgt>
<wgt id='1118'> +7.4439225e+04 </wgt>
<wgt id='1119'> +5.9518103e+04 </wgt>
<wgt id='1120'> +7.2828891e+04 </wgt>
<wgt id='1121'> +8.6820114e+04 </wgt>
<wgt id='1122'> +7.9320455e+04 </wgt>
<wgt id='1123'> +7.3666152e+04 </wgt>
<wgt id='1124'> +7.1466160e+04 </wgt>
<wgt id='1125'> +8.0048785e+04 </wgt>
<wgt id='1126'> +7.6520213e+04 </wgt>
<wgt id='1127'> +7.6229719e+04 </wgt>
<wgt id='1128'> +7.2757202e+04 </wgt>
<wgt id='1129'> +6.9919831e+04 </wgt>
<wgt id='1130'> +7.2373840e+04 </wgt>
<wgt id='1131'> +7.5070960e+04 </wgt>
<wgt id='1132'> +7.5697103e+04 </wgt>
<wgt id='1133'> +8.4437130e+04 </wgt>
<wgt id='1134'> +8.1189064e+04 </wgt>
<wgt id='1135'> +7.8255286e+04 </wgt>
<wgt id='1136'> +7.2250204e+04 </wgt>
<wgt id='1137'> +8.4255830e+04 </wgt>
<wgt id='1138'> +7.9351106e+04 </wgt>
<wgt id='1139'> +7.3578065e+04 </wgt>
<wgt id='1140'> +7.2684365e+04 </wgt>
<wgt id='1141'> +7.7047566e+04 </wgt>
<wgt id='1142'> +6.9592789e+04 </wgt>
<wgt id='1143'> +6.9812329e+04 </wgt>
<wgt id='1144'> +7.2712014e+04 </wgt>
<wgt id='1145'> +7.7394285e+04 </wgt>
<wgt id='1146'> +6.9862772e+04 </wgt>
<wgt id='1147'> +8.3492063e+04 </wgt>
<wgt id='1148'> +7.1649734e+04 </wgt>
<wgt id='1149'> +7.7373280e+04 </wgt>
<wgt id='1150'> +7.5210479e+04 </wgt>
<wgt id='1151'> +7.4446926e+04 </wgt>
<wgt id='1152'> +7.3141416e+04 </wgt>
<wgt id='1153'> +7.0181418e+04 </wgt>
<wgt id='1154'> +7.0612201e+04 </wgt>
<wgt id='1155'> +6.7959393e+04 </wgt>
<wgt id='1156'> +7.1112906e+04 </wgt>
<wgt id='1157'> +6.6235468e+04 </wgt>
<wgt id='1158'> +7.3077813e+04 </wgt>
<wgt id='1159'> +7.0436186e+04 </wgt>
<wgt id='1160'> +7.3791827e+04 </wgt>
<wgt id='1161'> +8.1310157e+04 </wgt>
<wgt id='1162'> +6.8996751e+04 </wgt>
<wgt id='1163'> +7.0222164e+04 </wgt>
<wgt id='1164'> +7.6085161e+04 </wgt>
<wgt id='1165'> +7.9036485e+04 </wgt>
<wgt id='1166'> +7.6534079e+04 </wgt>
<wgt id='1167'> +7.0069753e+04 </wgt>
<wgt id='1168'> +7.5879783e+04 </wgt>
<wgt id='1169'> +7.6304620e+04 </wgt>
<wgt id='1170'> +7.5126092e+04 </wgt>
<wgt id='1171'> +8.1041507e+04 </wgt>
<wgt id='1172'> +7.2143974e+04 </wgt>
<wgt id='1173'> +7.3503801e+04 </wgt>
<wgt id='1174'> +6.9477669e+04 </wgt>
<wgt id='1175'> +7.6284288e+04 </wgt>
<wgt id='1176'> +7.3763361e+04 </wgt>
<wgt id='1177'> +8.1701999e+04 </wgt>
<wgt id='1178'> +7.0216906e+04 </wgt>
<wgt id='1179'> +6.7008203e+04 </wgt>
<wgt id='1180'> +6.5197639e+04 </wgt>
<wgt id='1181'> +7.4003769e+04 </wgt>
<wgt id='1182'> +7.4619910e+04 </wgt>
<wgt id='1183'> +8.1132230e+04 </wgt>
<wgt id='1184'> +7.4508447e+04 </wgt>
<wgt id='1185'> +6.7150976e+04 </wgt>
<wgt id='1186'> +8.2921144e+04 </wgt>
<wgt id='1187'> +8.1174469e+04 </wgt>
<wgt id='1188'> +7.3009779e+04 </wgt>
<wgt id='1189'> +6.1899879e+04 </wgt>
<wgt id='1190'> +7.8455146e+04 </wgt>
<wgt id='1191'> +7.2539492e+04 </wgt>
<wgt id='1192'> +7.7800547e+04 </wgt>
<wgt id='1193'> +6.9111464e+04 </wgt>
<wgt id='1194'> +7.7356022e+04 </wgt>
<wgt id='1195'> +6.9919831e+04 </wgt>
<wgt id='1196'> +7.1576215e+04 </wgt>
<wgt id='1197'> +8.2448587e+04 </wgt>
<wgt id='1198'> +7.6288556e+04 </wgt>
<wgt id='1199'> +7.1250057e+04 </wgt>
<wgt id='1200'> +7.4613056e+04 </wgt>
<wgt id='1201'> +6.8093139e+04 </wgt>
<wgt id='1202'> +8.0989583e+04 </wgt>
<wgt id='1203'> +7.7122459e+04 </wgt>
<wgt id='1204'> +7.6104735e+04 </wgt>
<wgt id='1205'> +7.7944945e+04 </wgt>
<wgt id='1206'> +7.5937715e+04 </wgt>
<wgt id='1207'> +6.9550623e+04 </wgt>
<wgt id='1208'> +7.8835358e+04 </wgt>
<wgt id='1209'> +7.5873031e+04 </wgt>
<wgt id='1210'> +6.7885173e+04 </wgt>
<wgt id='1211'> +7.7634751e+04 </wgt>
<wgt id='1212'> +7.8848637e+04 </wgt>
<wgt id='1213'> +8.3159775e+04 </wgt>
<wgt id='1214'> +7.4461470e+04 </wgt>
<wgt id='1215'> +5.4418496e+04 </wgt>
<wgt id='1216'> +5.8986418e+04 </wgt>
<wgt id='1217'> +6.2076960e+04 </wgt>
<wgt id='1218'> +6.5479343e+04 </wgt>
<wgt id='1219'> +7.1854959e+04 </wgt>
<wgt id='1220'> +7.6232904e+04 </wgt>
<wgt id='1221'> +8.2695161e+04 </wgt>
<wgt id='1222'> +8.6855127e+04 </wgt>
<wgt id='1223'> +6.6843623e+04 </wgt>
<wgt id='1224'> +6.7055442e+04 </wgt>
<wgt id='1225'> +6.6402906e+04 </wgt>
<wgt id='1226'> +6.6798643e+04 </wgt>
<wgt id='1227'> +6.6172155e+04 </wgt>
<wgt id='1228'> +6.6445985e+04 </wgt>
<wgt id='1229'> +6.7363961e+04 </wgt>
<wgt id='1230'> +6.5877246e+04 </wgt>
<wgt id='1231'> +6.6936563e+04 </wgt>
<wgt id='1232'> +6.5474040e+04 </wgt>
<wgt id='1233'> +6.8198474e+04 </wgt>
<wgt id='1234'> +6.7632420e+04 </wgt>
<wgt id='1235'> +6.6482020e+04 </wgt>
<wgt id='1236'> +6.6230375e+04 </wgt>
<wgt id='1237'> +6.5877269e+04 </wgt>
<wgt id='1238'> +6.8443302e+04 </wgt>
<wgt id='1239'> +6.5724401e+04 </wgt>
<wgt id='1240'> +6.7191419e+04 </wgt>
<wgt id='1241'> +6.5971222e+04 </wgt>
<wgt id='1242'> +6.7312431e+04 </wgt>
<wgt id='1243'> +6.8341118e+04 </wgt>
<wgt id='1244'> +6.5290213e+04 </wgt>
<wgt id='1245'> +6.6501644e+04 </wgt>
<wgt id='1246'> +6.7205810e+04 </wgt>
<wgt id='1247'> +6.6149618e+04 </wgt>
<wgt id='1248'> +6.8044042e+04 </wgt>
<wgt id='1249'> +6.6883405e+04 </wgt>
<wgt id='1250'> +6.6801802e+04 </wgt>
<wgt id='1251'> +6.7471472e+04 </wgt>
<wgt id='1252'> +6.5896571e+04 </wgt>
<wgt id='1253'> +6.6564540e+04 </wgt>
<wgt id='1254'> +6.6738339e+04 </wgt>
<wgt id='1255'> +6.7136060e+04 </wgt>
<wgt id='1256'> +6.6197816e+04 </wgt>
<wgt id='1257'> +6.6577690e+04 </wgt>
<wgt id='1258'> +6.6315106e+04 </wgt>
<wgt id='1259'> +6.6501555e+04 </wgt>
<wgt id='1260'> +6.6525905e+04 </wgt>
<wgt id='1261'> +6.6853592e+04 </wgt>
<wgt id='1262'> +6.6885124e+04 </wgt>
<wgt id='1263'> +6.6468157e+04 </wgt>
<wgt id='1264'> +6.7289943e+04 </wgt>
<wgt id='1265'> +6.7067249e+04 </wgt>
<wgt id='1266'> +6.6707036e+04 </wgt>
<wgt id='1267'> +6.6810445e+04 </wgt>
<wgt id='1268'> +6.6456324e+04 </wgt>
<wgt id='1269'> +6.6545210e+04 </wgt>
<wgt id='1270'> +6.7035321e+04 </wgt>
<wgt id='1271'> +6.6878674e+04 </wgt>
<wgt id='1272'> +6.6851621e+04 </wgt>
<wgt id='1273'> +6.7059135e+04 </wgt>
<wgt id='1274'> +6.6865178e+04 </wgt>
<wgt id='1275'> +6.7074655e+04 </wgt>
<wgt id='1276'> +6.6651261e+04 </wgt>
<wgt id='1277'> +6.7040087e+04 </wgt>
<wgt id='1278'> +6.6976313e+04 </wgt>
<wgt id='1279'> +6.6977034e+04 </wgt>
<wgt id='1280'> +6.6786739e+04 </wgt>
<wgt id='1281'> +6.6538605e+04 </wgt>
<wgt id='1282'> +6.6838557e+04 </wgt>
<wgt id='1283'> +6.6812500e+04 </wgt>
<wgt id='1284'> +6.6896522e+04 </wgt>
<wgt id='1285'> +6.6909202e+04 </wgt>
<wgt id='1286'> +6.6883956e+04 </wgt>
<wgt id='1287'> +6.6660259e+04 </wgt>
<wgt id='1288'> +6.6977555e+04 </wgt>
<wgt id='1289'> +6.6618785e+04 </wgt>
<wgt id='1290'> +6.6810785e+04 </wgt>
<wgt id='1291'> +6.6948692e+04 </wgt>
<wgt id='1292'> +6.6804707e+04 </wgt>
<wgt id='1293'> +6.6756732e+04 </wgt>
<wgt id='1294'> +6.6754538e+04 </wgt>
<wgt id='1295'> +6.6854115e+04 </wgt>
<wgt id='1296'> +6.6800317e+04 </wgt>
<wgt id='1297'> +6.6912695e+04 </wgt>
<wgt id='1298'> +6.6805519e+04 </wgt>
<wgt id='1299'> +6.6777513e+04 </wgt>
<wgt id='1300'> +6.6720684e+04 </wgt>
<wgt id='1301'> +6.6719680e+04 </wgt>
<wgt id='1302'> +6.7035342e+04 </wgt>
<wgt id='1303'> +6.7079756e+04 </wgt>
<wgt id='1304'> +6.6871195e+04 </wgt>
<wgt id='1305'> +6.6864368e+04 </wgt>
<wgt id='1306'> +6.6885787e+04 </wgt>
<wgt id='1307'> +6.6836336e+04 </wgt>
<wgt id='1308'> +6.6836573e+04 </wgt>
<wgt id='1309'> +6.6926184e+04 </wgt>
<wgt id='1310'> +6.6870450e+04 </wgt>
<wgt id='1311'> +6.6980195e+04 </wgt>
<wgt id='1312'> +6.6751293e+04 </wgt>
<wgt id='1313'> +6.6816244e+04 </wgt>
<wgt id='1314'> +6.6827746e+04 </wgt>
<wgt id='1315'> +6.6880114e+04 </wgt>
<wgt id='1316'> +6.6771154e+04 </wgt>
<wgt id='1317'> +6.6841441e+04 </wgt>
<wgt id='1318'> +6.6778974e+04 </wgt>
<wgt id='1319'> +6.6860244e+04 </wgt>
<wgt id='1320'> +6.6858672e+04 </wgt>
<wgt id='1321'> +6.6814509e+04 </wgt>
<wgt id='1322'> +6.6767546e+04 </wgt>
<wgt id='1323'> +6.6754560e+04 </wgt>
<wgt id='1324'> +6.3777566e+04 </wgt>
<wgt id='1325'> +7.0569504e+04 </wgt>
<wgt id='1326'> +7.1833237e+04 </wgt>
<wgt id='1327'> +7.1554868e+04 </wgt>
<wgt id='1328'> +7.6769332e+04 </wgt>
<wgt id='1329'> +7.8114139e+04 </wgt>
<wgt id='1330'> +7.7038869e+04 </wgt>
<wgt id='1331'> +7.7964451e+04 </wgt>
<wgt id='1332'> +7.7039148e+04 </wgt>
<wgt id='1333'> +7.2863034e+04 </wgt>
<wgt id='1334'> +7.9152813e+04 </wgt>
<wgt id='1335'> +7.9547030e+04 </wgt>
<wgt id='1336'> +7.5070516e+04 </wgt>
<wgt id='1337'> +7.5987969e+04 </wgt>
<wgt id='1338'> +7.8027949e+04 </wgt>
<wgt id='1339'> +8.1382390e+04 </wgt>
<wgt id='1340'> +8.1204506e+04 </wgt>
<wgt id='1341'> +7.9615168e+04 </wgt>
<wgt id='1342'> +7.4926457e+04 </wgt>
<wgt id='1343'> +7.6959351e+04 </wgt>
<wgt id='1344'> +7.2408605e+04 </wgt>
<wgt id='1345'> +7.8213009e+04 </wgt>
<wgt id='1346'> +7.4643468e+04 </wgt>
<wgt id='1347'> +7.6439145e+04 </wgt>
<wgt id='1348'> +7.7670936e+04 </wgt>
<wgt id='1349'> +7.7231554e+04 </wgt>
<wgt id='1350'> +7.4365985e+04 </wgt>
<wgt id='1351'> +7.7929765e+04 </wgt>
<wgt id='1352'> +7.3049253e+04 </wgt>
<wgt id='1353'> +7.0437680e+04 </wgt>
<wgt id='1354'> +7.7218966e+04 </wgt>
<wgt id='1355'> +7.7583122e+04 </wgt>
<wgt id='1356'> +7.7932574e+04 </wgt>
<wgt id='1357'> +7.4379746e+04 </wgt>
<wgt id='1358'> +7.4060566e+04 </wgt>
<wgt id='1359'> +7.9414279e+04 </wgt>
<wgt id='1360'> +7.5152547e+04 </wgt>
<wgt id='1361'> +7.2583108e+04 </wgt>
<wgt id='1362'> +7.7125944e+04 </wgt>
<wgt id='1363'> +7.8966366e+04 </wgt>
<wgt id='1364'> +7.6361718e+04 </wgt>
<wgt id='1365'> +7.5531059e+04 </wgt>
<wgt id='1366'> +7.7538140e+04 </wgt>
<wgt id='1367'> +7.3931916e+04 </wgt>
<wgt id='1368'> +7.8890526e+04 </wgt>
<wgt id='1369'> +7.2279890e+04 </wgt>
<wgt id='1370'> +7.8548952e+04 </wgt>
<wgt id='1371'> +7.6539391e+04 </wgt>
<wgt id='1372'> +7.5999218e+04 </wgt>
<wgt id='1373'> +7.6306684e+04 </wgt>
<wgt id='1374'> +7.7459682e+04 </wgt>
<wgt id='1375'> +7.6585792e+04 </wgt>
<wgt id='1376'> +7.8993126e+04 </wgt>
<wgt id='1377'> +7.8709185e+04 </wgt>
<wgt id='1378'> +7.9654581e+04 </wgt>
<wgt id='1379'> +7.7971856e+04 </wgt>
<wgt id='1380'> +7.2133744e+04 </wgt>
<wgt id='1381'> +7.5650197e+04 </wgt>
<wgt id='1382'> +8.0813278e+04 </wgt>
<wgt id='1383'> +7.9730134e+04 </wgt>
<wgt id='1384'> +7.6490556e+04 </wgt>
<wgt id='1385'> +8.3028234e+04 </wgt>
<wgt id='1386'> +7.3042150e+04 </wgt>
<wgt id='1387'> +7.8396456e+04 </wgt>
<wgt id='1388'> +7.6828859e+04 </wgt>
<wgt id='1389'> +7.6542087e+04 </wgt>
<wgt id='1390'> +7.8395762e+04 </wgt>
<wgt id='1391'> +7.3658758e+04 </wgt>
<wgt id='1392'> +7.9685973e+04 </wgt>
<wgt id='1393'> +8.3216994e+04 </wgt>
<wgt id='1394'> +7.5531059e+04 </wgt>
<wgt id='1395'> +7.6145804e+04 </wgt>
<wgt id='1396'> +7.5624874e+04 </wgt>
<wgt id='1397'> +7.7657934e+04 </wgt>
<wgt id='1398'> +7.5192908e+04 </wgt>
<wgt id='1399'> +7.7443604e+04 </wgt>
<wgt id='1400'> +7.5390326e+04 </wgt>
<wgt id='1401'> +7.9149302e+04 </wgt>
<wgt id='1402'> +7.3794017e+04 </wgt>
<wgt id='1403'> +7.3222152e+04 </wgt>
<wgt id='1404'> +7.9122641e+04 </wgt>
<wgt id='1405'> +7.4887669e+04 </wgt>
<wgt id='1406'> +7.5552431e+04 </wgt>
<wgt id='1407'> +7.4569809e+04 </wgt>
<wgt id='1408'> +7.5081035e+04 </wgt>
<wgt id='1409'> +7.6105223e+04 </wgt>
<wgt id='1410'> +7.4770204e+04 </wgt>
<wgt id='1411'> +7.6098450e+04 </wgt>
<wgt id='1412'> +7.6616364e+04 </wgt>
<wgt id='1413'> +7.7255058e+04 </wgt>
<wgt id='1414'> +7.9498077e+04 </wgt>
<wgt id='1415'> +7.9005466e+04 </wgt>
<wgt id='1416'> +7.7973145e+04 </wgt>
<wgt id='1417'> +7.4087895e+04 </wgt>
<wgt id='1418'> +7.3939665e+04 </wgt>
<wgt id='1419'> +8.2486005e+04 </wgt>
<wgt id='1420'> +8.1610674e+04 </wgt>
<wgt id='1421'> +7.4179426e+04 </wgt>
<wgt id='1422'> +7.8428046e+04 </wgt>
<wgt id='1423'> +7.7383190e+04 </wgt>
<wgt id='1424'> +7.6753516e+04 </wgt>
<wgt id='1425'> +7.6020002e+04 </wgt>
<wgt id='1426'> +7.7910299e+04 </wgt>
<wgt id='1427'> +7.5318036e+04 </wgt>
<wgt id='1428'> +7.1238630e+04 </wgt>
<wgt id='1429'> +7.4475641e+04 </wgt>
<wgt id='1430'> +7.9736518e+04 </wgt>
<wgt id='1431'> +7.6937158e+04 </wgt>
<wgt id='1432'> +7.7284816e+04 </wgt>
<wgt id='1433'> +7.7919678e+04 </wgt>
<wgt id='1434'> +7.6939921e+04 </wgt>
<wgt id='1435'> +7.7046751e+04 </wgt>
<wgt id='1436'> +7.8391403e+04 </wgt>
<wgt id='1437'> +7.6407425e+04 </wgt>
<wgt id='1438'> +7.6301034e+04 </wgt>
<wgt id='1439'> +7.7239662e+04 </wgt>
<wgt id='1440'> +7.7579394e+04 </wgt>
<wgt id='1441'> +7.7452332e+04 </wgt>
<wgt id='1442'> +7.7683873e+04 </wgt>
<wgt id='1443'> +7.6877492e+04 </wgt>
<wgt id='1444'> +7.7681015e+04 </wgt>
<wgt id='1445'> +7.6763773e+04 </wgt>
<wgt id='1446'> +7.7840344e+04 </wgt>
<wgt id='1447'> +7.6392458e+04 </wgt>
<wgt id='1448'> +7.6953115e+04 </wgt>
<wgt id='1449'> +7.6864137e+04 </wgt>
<wgt id='1450'> +7.7087365e+04 </wgt>
<wgt id='1451'> +7.7143064e+04 </wgt>
<wgt id='1452'> +7.6762545e+04 </wgt>
<wgt id='1453'> +7.6977743e+04 </wgt>
<wgt id='1454'> +7.6796817e+04 </wgt>
<wgt id='1455'> +7.7072753e+04 </wgt>
<wgt id='1456'> +7.6907757e+04 </wgt>
<wgt id='1457'> +7.7005928e+04 </wgt>
<wgt id='1458'> +7.6636956e+04 </wgt>
<wgt id='1459'> +7.6847986e+04 </wgt>
<wgt id='1460'> +7.6789899e+04 </wgt>
<wgt id='1461'> +7.6911519e+04 </wgt>
<wgt id='1462'> +7.6835635e+04 </wgt>
<wgt id='1463'> +7.6992917e+04 </wgt>
<wgt id='1464'> +7.6915925e+04 </wgt>
<wgt id='1465'> +7.6845105e+04 </wgt>
<wgt id='1466'> +7.6670032e+04 </wgt>
<wgt id='1467'> +7.6842361e+04 </wgt>
<wgt id='1468'> +7.6971892e+04 </wgt>
<wgt id='1469'> +7.6962533e+04 </wgt>
<wgt id='1470'> +7.6882282e+04 </wgt>
<wgt id='1471'> +7.7040776e+04 </wgt>
<wgt id='1472'> +7.6996245e+04 </wgt>
<wgt id='1473'> +7.6919055e+04 </wgt>
<wgt id='1474'> +7.6915787e+04 </wgt>
<wgt id='1475'> +7.7001668e+04 </wgt>
<wgt id='1476'> +7.6822719e+04 </wgt>
<wgt id='1477'> +7.6980137e+04 </wgt>
<wgt id='1478'> +7.6983044e+04 </wgt>
<wgt id='1479'> +7.6939853e+04 </wgt>
<wgt id='1480'> +7.6980828e+04 </wgt>
<wgt id='1481'> +7.6899064e+04 </wgt>
<wgt id='1482'> +7.4475641e+04 </wgt>
<wgt id='1483'> +7.9736518e+04 </wgt>
<wgt id='1484'> +7.4180405e+04 </wgt>
<wgt id='1485'> +7.2553166e+04 </wgt>
<wgt id='1486'> +7.3806812e+04 </wgt>
<wgt id='1487'> +7.2790228e+04 </wgt>
<wgt id='1488'> +7.4926176e+04 </wgt>
<wgt id='1489'> +7.4953776e+04 </wgt>
<wgt id='1490'> +7.2768631e+04 </wgt>
<wgt id='1491'> +7.9207513e+04 </wgt>
<wgt id='1492'> +7.3181926e+04 </wgt>
<wgt id='1493'> +7.2056080e+04 </wgt>
<wgt id='1494'> +7.4794946e+04 </wgt>
<wgt id='1495'> +7.8292717e+04 </wgt>
<wgt id='1496'> +7.5584717e+04 </wgt>
<wgt id='1497'> +7.7506459e+04 </wgt>
<wgt id='1498'> +7.1926814e+04 </wgt>
<wgt id='1499'> +7.3302608e+04 </wgt>
<wgt id='1500'> +7.3100188e+04 </wgt>
<wgt id='1501'> +7.6418372e+04 </wgt>
<wgt id='1502'> +7.3311815e+04 </wgt>
<wgt id='1503'> +7.5578088e+04 </wgt>
<wgt id='1504'> +7.4413985e+04 </wgt>
<wgt id='1505'> +7.3159102e+04 </wgt>
<wgt id='1506'> +7.4931305e+04 </wgt>
<wgt id='1507'> +7.3774272e+04 </wgt>
<wgt id='1508'> +7.7659064e+04 </wgt>
<wgt id='1509'> +7.2131551e+04 </wgt>
<wgt id='1510'> +7.4780140e+04 </wgt>
<wgt id='1511'> +7.2204852e+04 </wgt>
<wgt id='1512'> +7.2479498e+04 </wgt>
<wgt id='1513'> +7.7676790e+04 </wgt>
<wgt id='1514'> +7.4757567e+04 </wgt>
<wgt id='1515'> +7.3261277e+04 </wgt>
<wgt id='1516'> +7.5567021e+04 </wgt>
<wgt id='1517'> +7.1880101e+04 </wgt>
<wgt id='1518'> +7.2076095e+04 </wgt>
<wgt id='1519'> +7.1015500e+04 </wgt>
<wgt id='1520'> +7.1959251e+04 </wgt>
<wgt id='1521'> +7.5428215e+04 </wgt>
<wgt id='1522'> +7.3802613e+04 </wgt>
<wgt id='1523'> +7.4583239e+04 </wgt>
<wgt id='1524'> +7.2665766e+04 </wgt>
<wgt id='1525'> +7.1768018e+04 </wgt>
<wgt id='1526'> +7.3398533e+04 </wgt>
<wgt id='1527'> +7.3643777e+04 </wgt>
<wgt id='1528'> +7.4328206e+04 </wgt>
<wgt id='1529'> +7.5421549e+04 </wgt>
<wgt id='1530'> +7.3987190e+04 </wgt>
<wgt id='1531'> +7.3563666e+04 </wgt>
<wgt id='1532'> +7.4444436e+04 </wgt>
<wgt id='1533'> +7.2060554e+04 </wgt>
<wgt id='1534'> +7.5264578e+04 </wgt>
<wgt id='1535'> +7.5383235e+04 </wgt>
<wgt id='1536'> +7.2438061e+04 </wgt>
<wgt id='1537'> +7.5438831e+04 </wgt>
<wgt id='1538'> +7.5912871e+04 </wgt>
<wgt id='1539'> +7.2723102e+04 </wgt>
<wgt id='1540'> +7.6236626e+04 </wgt>
<wgt id='1541'> +7.2164493e+04 </wgt>
<wgt id='1542'> +7.5988516e+04 </wgt>
<wgt id='1543'> +7.3641375e+04 </wgt>
<wgt id='1544'> +7.3264148e+04 </wgt>
<wgt id='1545'> +7.2708645e+04 </wgt>
<wgt id='1546'> +7.3300586e+04 </wgt>
<wgt id='1547'> +7.4823265e+04 </wgt>
<wgt id='1548'> +7.3420361e+04 </wgt>
<wgt id='1549'> +7.6460375e+04 </wgt>
<wgt id='1550'> +7.4970192e+04 </wgt>
<wgt id='1551'> +7.5198796e+04 </wgt>
<wgt id='1552'> +7.1999455e+04 </wgt>
<wgt id='1553'> +7.4884304e+04 </wgt>
<wgt id='1554'> +7.4063642e+04 </wgt>
<wgt id='1555'> +7.6013300e+04 </wgt>
<wgt id='1556'> +7.4384879e+04 </wgt>
<wgt id='1557'> +7.4402535e+04 </wgt>
<wgt id='1558'> +7.2268084e+04 </wgt>
<wgt id='1559'> +7.3288341e+04 </wgt>
<wgt id='1560'> +6.9438314e+04 </wgt>
<wgt id='1561'> +7.5923517e+04 </wgt>
<wgt id='1562'> +7.4506031e+04 </wgt>
<wgt id='1563'> +7.5757232e+04 </wgt>
<wgt id='1564'> +7.4427642e+04 </wgt>
<wgt id='1565'> +7.0680557e+04 </wgt>
<wgt id='1566'> +7.3388577e+04 </wgt>
<wgt id='1567'> +7.6598583e+04 </wgt>
<wgt id='1568'> +7.4145738e+04 </wgt>
<wgt id='1569'> +7.4678636e+04 </wgt>
<wgt id='1570'> +7.2946679e+04 </wgt>
<wgt id='1571'> +7.4415582e+04 </wgt>
<wgt id='1572'> +7.5707410e+04 </wgt>
<wgt id='1573'> +7.5467131e+04 </wgt>
<wgt id='1574'> +7.5932350e+04 </wgt>
<wgt id='1575'> +7.5033449e+04 </wgt>
<wgt id='1576'> +7.2599038e+04 </wgt>
<wgt id='1577'> +7.5459359e+04 </wgt>
<wgt id='1578'> +7.3104423e+04 </wgt>
<wgt id='1579'> +7.5515645e+04 </wgt>
<wgt id='1580'> +7.5890975e+04 </wgt>
<wgt id='1581'> +7.2480651e+04 </wgt>
<wgt id='1582'> +7.3927292e+04 </wgt>
<wgt id='1583'> +7.3628360e+04 </wgt>
<wgt id='1584'> +7.6636594e+04 </wgt>
<wgt id='1585'> +7.3995313e+04 </wgt>
<wgt id='1586'> +3.0761164e+04 </wgt>
<wgt id='1587'> +7.2106554e+04 </wgt>
<wgt id='1588'> +7.4475641e+04 </wgt>
<wgt id='1589'> +7.5832488e+04 </wgt>
<wgt id='1590'> +7.8978160e+04 </wgt>
<wgt id='1591'> +7.9736518e+04 </wgt>
<wgt id='1592'> +8.2578986e+04 </wgt>
<wgt id='1593'> +7.1110471e+04 </wgt>
<wgt id='1594'> +7.0097734e+04 </wgt>
<wgt id='1595'> +7.1408450e+04 </wgt>
<wgt id='1596'> +6.9769593e+04 </wgt>
<wgt id='1597'> +6.9027942e+04 </wgt>
<wgt id='1598'> +7.4233485e+04 </wgt>
<wgt id='1599'> +6.8744148e+04 </wgt>
<wgt id='1600'> +7.6223829e+04 </wgt>
<wgt id='1601'> +6.6947736e+04 </wgt>
<wgt id='1602'> +7.4450405e+04 </wgt>
<wgt id='1603'> +6.8721971e+04 </wgt>
<wgt id='1604'> +7.1143116e+04 </wgt>
<wgt id='1605'> +7.0772836e+04 </wgt>
<wgt id='1606'> +6.7117023e+04 </wgt>
<wgt id='1607'> +7.3766883e+04 </wgt>
<wgt id='1608'> +6.7915479e+04 </wgt>
<wgt id='1609'> +6.9874571e+04 </wgt>
<wgt id='1610'> +7.0452441e+04 </wgt>
<wgt id='1611'> +7.1787139e+04 </wgt>
<wgt id='1612'> +6.9201339e+04 </wgt>
<wgt id='1613'> +7.3885896e+04 </wgt>
<wgt id='1614'> +6.9894900e+04 </wgt>
<wgt id='1615'> +7.3298921e+04 </wgt>
<wgt id='1616'> +7.1322738e+04 </wgt>
<wgt id='1617'> +6.9789405e+04 </wgt>
<wgt id='1618'> +7.0799135e+04 </wgt>
<wgt id='1619'> +7.1849851e+04 </wgt>
<wgt id='1620'> +7.0885565e+04 </wgt>
<wgt id='1621'> +6.9957911e+04 </wgt>
<wgt id='1622'> +7.0211363e+04 </wgt>
<wgt id='1623'> +7.1610865e+04 </wgt>
<wgt id='1624'> +7.1976957e+04 </wgt>
<wgt id='1625'> +6.7068496e+04 </wgt>
<wgt id='1626'> +7.0482562e+04 </wgt>
<wgt id='1627'> +7.1497096e+04 </wgt>
<wgt id='1628'> +6.9061327e+04 </wgt>
<wgt id='1629'> +7.0173107e+04 </wgt>
<wgt id='1630'> +6.5892836e+04 </wgt>
<wgt id='1631'> +7.6957484e+04 </wgt>
<wgt id='1632'> +6.7412278e+04 </wgt>
<wgt id='1633'> +7.5262363e+04 </wgt>
<wgt id='1634'> +6.9263068e+04 </wgt>
<wgt id='1635'> +7.3182304e+04 </wgt>
<wgt id='1636'> +7.2430087e+04 </wgt>
<wgt id='1637'> +6.9830470e+04 </wgt>
<wgt id='1638'> +7.1560821e+04 </wgt>
<wgt id='1639'> +6.8735158e+04 </wgt>
<wgt id='1640'> +7.0042385e+04 </wgt>
<wgt id='1641'> +7.1319521e+04 </wgt>
<wgt id='1642'> +7.1501563e+04 </wgt>
<wgt id='1643'> +6.9852318e+04 </wgt>
<wgt id='1644'> +6.7393499e+04 </wgt>
<wgt id='1645'> +7.6357930e+04 </wgt>
<wgt id='1646'> +6.7107798e+04 </wgt>
<wgt id='1647'> +7.3164382e+04 </wgt>
<wgt id='1648'> +6.8878903e+04 </wgt>
<wgt id='1649'> +7.2426059e+04 </wgt>
<wgt id='1650'> +7.1732256e+04 </wgt>
<wgt id='1651'> +7.0692457e+04 </wgt>
<wgt id='1652'> +6.7737393e+04 </wgt>
<wgt id='1653'> +6.9465258e+04 </wgt>
<wgt id='1654'> +7.2684597e+04 </wgt>
<wgt id='1655'> +7.4187980e+04 </wgt>
<wgt id='1656'> +7.9426822e+04 </wgt>
<wgt id='1657'> +7.9130736e+04 </wgt>
<wgt id='1658'> +7.8729477e+04 </wgt>
<wgt id='1659'> +7.9740959e+04 </wgt>
<wgt id='1660'> +7.9139367e+04 </wgt>
<wgt id='1661'> +7.7385351e+04 </wgt>
<wgt id='1662'> +8.0288875e+04 </wgt>
<wgt id='1663'> +7.9477222e+04 </wgt>
<wgt id='1664'> +7.8542380e+04 </wgt>
<wgt id='1665'> +7.8323133e+04 </wgt>
<wgt id='1666'> +7.9641191e+04 </wgt>
<wgt id='1667'> +7.7621056e+04 </wgt>
<wgt id='1668'> +8.0709868e+04 </wgt>
<wgt id='1669'> +7.6797739e+04 </wgt>
<wgt id='1670'> +8.2931138e+04 </wgt>
<wgt id='1671'> +7.8901741e+04 </wgt>
<wgt id='1672'> +7.9820116e+04 </wgt>
<wgt id='1673'> +8.1635836e+04 </wgt>
<wgt id='1674'> +7.7921193e+04 </wgt>
<wgt id='1675'> +8.0394487e+04 </wgt>
<wgt id='1676'> +7.6845843e+04 </wgt>
<wgt id='1677'> +8.0031748e+04 </wgt>
<wgt id='1678'> +7.7965680e+04 </wgt>
<wgt id='1679'> +8.1622614e+04 </wgt>
<wgt id='1680'> +7.8213198e+04 </wgt>
<wgt id='1681'> +8.0092367e+04 </wgt>
<wgt id='1682'> +7.7863654e+04 </wgt>
<wgt id='1683'> +7.8501897e+04 </wgt>
<wgt id='1684'> +7.9466822e+04 </wgt>
<wgt id='1685'> +8.1366984e+04 </wgt>
<wgt id='1686'> +7.6622877e+04 </wgt>
<wgt id='1687'> +7.5568306e+04 </wgt>
<wgt id='1688'> +8.5261085e+04 </wgt>
<wgt id='1689'> +7.6398027e+04 </wgt>
<wgt id='1690'> +8.3208480e+04 </wgt>
<wgt id='1691'> +7.8833816e+04 </wgt>
<wgt id='1692'> +7.9481988e+04 </wgt>
<wgt id='1693'> +7.4917406e+04 </wgt>
<wgt id='1694'> +8.4801086e+04 </wgt>
<wgt id='1695'> +7.8252074e+04 </wgt>
<wgt id='1696'> +8.0955413e+04 </wgt>
<wgt id='1697'> +7.8113708e+04 </wgt>
<wgt id='1698'> +8.0996992e+04 </wgt>
<wgt id='1699'> +7.9434498e+04 </wgt>
<wgt id='1700'> +7.6505538e+04 </wgt>
<wgt id='1701'> +8.1940791e+04 </wgt>
<wgt id='1702'> +7.7405198e+04 </wgt>
<wgt id='1703'> +8.0024365e+04 </wgt>
<wgt id='1704'> +7.9316659e+04 </wgt>
<wgt id='1705'> +7.8420983e+04 </wgt>
<wgt id='1706'> +7.9507385e+04 </wgt>
<wgt id='1707'> +7.8375270e+04 </wgt>
<wgt id='1708'> +7.9675828e+04 </wgt>
<wgt id='1709'> +7.6416834e+04 </wgt>
<wgt id='1710'> +8.0594844e+04 </wgt>
<wgt id='1711'> +7.8374773e+04 </wgt>
<wgt id='1712'> +7.9551747e+04 </wgt>
<wgt id='1713'> +7.9021237e+04 </wgt>
<wgt id='1714'> +7.9500311e+04 </wgt>
<wgt id='1715'> +7.8853588e+04 </wgt>
<wgt id='1716'> +7.4169784e+04 </wgt>
<wgt id='1717'> +7.7704326e+04 </wgt>
<wgt id='1718'> +7.7811972e+04 </wgt>
<wgt id='1719'> +7.7566390e+04 </wgt>
<wgt id='1720'> +7.8453892e+04 </wgt>
<wgt id='1721'> +7.7019741e+04 </wgt>
<wgt id='1722'> +7.8320702e+04 </wgt>
<wgt id='1723'> +7.6694952e+04 </wgt>
<wgt id='1724'> +7.6928546e+04 </wgt>
<wgt id='1725'> +7.8333713e+04 </wgt>
<wgt id='1726'> +7.6880527e+04 </wgt>
<wgt id='1727'> +7.8553304e+04 </wgt>
<wgt id='1728'> +7.7517796e+04 </wgt>
<wgt id='1729'> +7.7884294e+04 </wgt>
<wgt id='1730'> +7.7336872e+04 </wgt>
<wgt id='1731'> +7.7966070e+04 </wgt>
<wgt id='1732'> +7.7750953e+04 </wgt>
<wgt id='1733'> +7.7750953e+04 </wgt>
<wgt id='1734'> +7.7710212e+04 </wgt>
<wgt id='1735'> +7.7696044e+04 </wgt>
<wgt id='1736'> +7.8172827e+04 </wgt>
<wgt id='1737'> +7.7064439e+04 </wgt>
<wgt id='1738'> +7.7964559e+04 </wgt>
<wgt id='1739'> +7.7267374e+04 </wgt>
<wgt id='1740'> +7.7542012e+04 </wgt>
<wgt id='1741'> +7.8095348e+04 </wgt>
<wgt id='1742'> +7.7313593e+04 </wgt>
<wgt id='1743'> +7.8158810e+04 </wgt>
<wgt id='1744'> +7.7461142e+04 </wgt>
<wgt id='1745'> +7.8360356e+04 </wgt>
<wgt id='1746'> +7.6942364e+04 </wgt>
<wgt id='1747'> +7.8130059e+04 </wgt>
<wgt id='1748'> +7.8098705e+04 </wgt>
<wgt id='1749'> +7.6415711e+04 </wgt>
<wgt id='1750'> +7.7635975e+04 </wgt>
<wgt id='1751'> +7.7778895e+04 </wgt>
<wgt id='1752'> +7.7574272e+04 </wgt>
<wgt id='1753'> +7.7887711e+04 </wgt>
<wgt id='1754'> +7.7881531e+04 </wgt>
<wgt id='1755'> +7.7609187e+04 </wgt>
<wgt id='1756'> +7.7794037e+04 </wgt>
<wgt id='1757'> +7.7525137e+04 </wgt>
<wgt id='1758'> +7.7267369e+04 </wgt>
<wgt id='1759'> +7.8078466e+04 </wgt>
<wgt id='1760'> +7.7207198e+04 </wgt>
<wgt id='1761'> +7.8272515e+04 </wgt>
<wgt id='1762'> +7.7708389e+04 </wgt>
<wgt id='1763'> +7.7048834e+04 </wgt>
<wgt id='1764'> +7.7717228e+04 </wgt>
<wgt id='1765'> +7.7650905e+04 </wgt>
<wgt id='1766'> +7.7624639e+04 </wgt>
<wgt id='1767'> +7.7832562e+04 </wgt>
<wgt id='1768'> +7.7716650e+04 </wgt>
<wgt id='1769'> +7.7659206e+04 </wgt>
<wgt id='1770'> +7.7579624e+04 </wgt>
<wgt id='1771'> +7.7542478e+04 </wgt>
<wgt id='1772'> +7.7919388e+04 </wgt>
<wgt id='1773'> +7.7701076e+04 </wgt>
<wgt id='1774'> +7.8994360e+04 </wgt>
<wgt id='1775'> +7.6843495e+04 </wgt>
<wgt id='1776'> +7.7401322e+04 </wgt>
<wgt id='1777'> +7.7807184e+04 </wgt>
<wgt id='1778'> +7.8112651e+04 </wgt>
<wgt id='1779'> +7.7356462e+04 </wgt>
<wgt id='1780'> +7.5963308e+04 </wgt>
<wgt id='1781'> +7.7143643e+04 </wgt>
<wgt id='1782'> +7.7704326e+04 </wgt>
<wgt id='1783'> +7.7662658e+04 </wgt>
<wgt id='1784'> +7.5540887e+04 </wgt>
<wgt id='1785'> +7.6709872e+04 </wgt>
<wgt id='1786'> +8.1233728e+04 </wgt>
<wgt id='1787'> +7.5854901e+04 </wgt>
<wgt id='1788'> +7.5125264e+04 </wgt>
<wgt id='1789'> +7.5432546e+04 </wgt>
<wgt id='1790'> +7.5564475e+04 </wgt>
<wgt id='1791'> +7.5266203e+04 </wgt>
<wgt id='1792'> +7.6296950e+04 </wgt>
<wgt id='1793'> +7.6024426e+04 </wgt>
<wgt id='1794'> +7.5590717e+04 </wgt>
<wgt id='1795'> +7.5645896e+04 </wgt>
<wgt id='1796'> +7.5706558e+04 </wgt>
<wgt id='1797'> +7.4021674e+04 </wgt>
<wgt id='1798'> +7.5682024e+04 </wgt>
<wgt id='1799'> +7.6535246e+04 </wgt>
<wgt id='1800'> +7.4434613e+04 </wgt>
<wgt id='1801'> +7.4511829e+04 </wgt>
<wgt id='1802'> +7.5630473e+04 </wgt>
<wgt id='1803'> +7.5072895e+04 </wgt>
<wgt id='1804'> +7.5555785e+04 </wgt>
<wgt id='1805'> +7.6869729e+04 </wgt>
<wgt id='1806'> +7.4955071e+04 </wgt>
<wgt id='1807'> +7.5694384e+04 </wgt>
<wgt id='1808'> +7.5361716e+04 </wgt>
<wgt id='1809'> +7.5475202e+04 </wgt>
<wgt id='1810'> +7.5809985e+04 </wgt>
<wgt id='1811'> +7.5680010e+04 </wgt>
<wgt id='1812'> +7.6642360e+04 </wgt>
<wgt id='1813'> +7.6993576e+04 </wgt>
<wgt id='1814'> +7.5470971e+04 </wgt>
<wgt id='1815'> +7.5423889e+04 </wgt>
<wgt id='1816'> +7.5743873e+04 </wgt>
<wgt id='1817'> +7.5558112e+04 </wgt>
<wgt id='1818'> +7.5873457e+04 </wgt>
<wgt id='1819'> +7.5557514e+04 </wgt>
<wgt id='1820'> +7.4532111e+04 </wgt>
<wgt id='1821'> +7.5537785e+04 </wgt>
<wgt id='1822'> +7.5436342e+04 </wgt>
<wgt id='1823'> +7.3136674e+04 </wgt>
<wgt id='1824'> +7.5477612e+04 </wgt>
<wgt id='1825'> +7.4307207e+04 </wgt>
<wgt id='1826'> +7.6745699e+04 </wgt>
<wgt id='1827'> +7.6550860e+04 </wgt>
<wgt id='1828'> +7.6589216e+04 </wgt>
<wgt id='1829'> +7.6512042e+04 </wgt>
<wgt id='1830'> +7.6786785e+04 </wgt>
<wgt id='1831'> +7.6313807e+04 </wgt>
<wgt id='1832'> +7.6775430e+04 </wgt>
<wgt id='1833'> +7.6326435e+04 </wgt>
<wgt id='1834'> +7.6450117e+04 </wgt>
<wgt id='1835'> +7.6644346e+04 </wgt>
<wgt id='1836'> +7.6919958e+04 </wgt>
<wgt id='1837'> +7.6174646e+04 </wgt>
<wgt id='1838'> +7.6612232e+04 </wgt>
<wgt id='1839'> +7.6488040e+04 </wgt>
<wgt id='1840'> +7.6296133e+04 </wgt>
<wgt id='1841'> +7.6817525e+04 </wgt>
<wgt id='1842'> +7.6591128e+04 </wgt>
<wgt id='1843'> +7.6791570e+04 </wgt>
<wgt id='1844'> +7.6452024e+04 </wgt>
<wgt id='1845'> +7.6615674e+04 </wgt>
<wgt id='1846'> +7.6526310e+04 </wgt>
<wgt id='1847'> +7.6555103e+04 </wgt>
<wgt id='1848'> +7.5862943e+04 </wgt>
<wgt id='1849'> +7.7039635e+04 </wgt>
<wgt id='1850'> +7.6870951e+04 </wgt>
<wgt id='1851'> +7.6195211e+04 </wgt>
<wgt id='1852'> +7.7064462e+04 </wgt>
<wgt id='1853'> +7.5759428e+04 </wgt>
<wgt id='1854'> +7.7045864e+04 </wgt>
<wgt id='1855'> +7.6200247e+04 </wgt>
<wgt id='1856'> +7.8633165e+04 </wgt>
<wgt id='1857'> +7.8597340e+04 </wgt>
<wgt id='1858'> +7.8646984e+04 </wgt>
<wgt id='1859'> +7.8572127e+04 </wgt>
<wgt id='1860'> +7.8635936e+04 </wgt>
<wgt id='1861'> +7.8793504e+04 </wgt>
<wgt id='1862'> +7.8909703e+04 </wgt>
<wgt id='1863'> +7.7809425e+04 </wgt>
<wgt id='1864'> +7.8819501e+04 </wgt>
<wgt id='1865'> +7.8763749e+04 </wgt>
<wgt id='1866'> +7.8684178e+04 </wgt>
<wgt id='1867'> +7.8628488e+04 </wgt>
<wgt id='1868'> +7.8958013e+04 </wgt>
<wgt id='1869'> +7.8353712e+04 </wgt>
<wgt id='1870'> +7.8470031e+04 </wgt>
<wgt id='1871'> +7.8544171e+04 </wgt>
<wgt id='1872'> +7.8751738e+04 </wgt>
<wgt id='1873'> +7.8604743e+04 </wgt>
<wgt id='1874'> +7.8492295e+04 </wgt>
<wgt id='1875'> +7.8656685e+04 </wgt>
<wgt id='1876'> +7.8319369e+04 </wgt>
<wgt id='1877'> +7.8995660e+04 </wgt>
<wgt id='1878'> +7.8063528e+04 </wgt>
<wgt id='1879'> +7.8861166e+04 </wgt>
<wgt id='1880'> +7.9105431e+04 </wgt>
<wgt id='1881'> +7.9222219e+04 </wgt>
<wgt id='1882'> +7.8732550e+04 </wgt>
<wgt id='1883'> +7.8345312e+04 </wgt>
<wgt id='1884'> +7.8769319e+04 </wgt>
<wgt id='1885'> +7.7930633e+04 </wgt>
<wgt id='1886'> +1.2012531e+04 </wgt>
<wgt id='1887'> +1.9039613e+04 </wgt>
<wgt id='1888'> +2.6898617e+04 </wgt>
<wgt id='1889'> +3.5764127e+04 </wgt>
</rwgt>
</event>
<event npLO=" -1 " npNLO=" 0 ">
 5      0 +7.4519530e+04 1.93585220e+01 7.55820760e-03 1.20291500e-01
       -1 -1    0    0    0  501 +0.0000000000e+00 +0.0000000000e+00 +9.2840344051e+00 9.2840344051e+00 0.0000000000e+00 0.0000e+00 1.0000e+00
        2 -1    0    0  501    0 +0.0000000000e+00 +0.0000000000e+00 -1.7044812885e+02 1.7044812885e+02 0.0000000000e+00 0.0000e+00 -1.0000e+00
       24  2    1    2    0    0 +0.0000000000e+00 +0.0000000000e+00 -1.6116409445e+02 1.7973216326e+02 7.9559947022e+01 0.0000e+00 0.0000e+00
      -15  1    3    3    0    0 +3.0472756274e+01 -8.2168957459e-02 -2.2926241178e+01 3.8175461886e+01 1.7770000000e+00 0.0000e+00 1.0000e+00
       16  1    3    3    0    0 -3.0472756274e+01 +8.2168957459e-02 -1.3823785327e+02 1.4155670137e+02 0.0000000000e+00 0.0000e+00 -1.0000e+00
#aMCatNLO 1  0  0  2  1 0.18835360E+02 0.00000000E+00 -9  5  0 0.00000000E+00 0.00000000E+00 0.00000000E+00 0.00000000E+00 0.00000000E+00
<rwgt>
<wgt id='1001'> +7.4519530e+04 </wgt>
<wgt id='1002'> +7.6178532e+04 </wgt>
<wgt id='1003'> +7.2450074e+04 </wgt>
<wgt id='1004'> +8.2050156e+04 </wgt>
<wgt id='1005'> +8.4032892e+04 </wgt>
<wgt id='1006'> +7.9577011e+04 </wgt>
<wgt id='1007'> +6.6076317e+04 </wgt>
<wgt id='1008'> +6.7418901e+04 </wgt>
<wgt id='1009'> +6.4401449e+04 </wgt>
<wgt id='1010'> +7.4519530e+04 </wgt>
<wgt id='1011'> +7.4500851e+04 </wgt>
<wgt id='1012'> +7.4543271e+04 </wgt>
<wgt id='1013'> +7.4288641e+04 </wgt>
<wgt id='1014'> +7.4739193e+04 </wgt>
<wgt id='1015'> +7.4321591e+04 </wgt>
<wgt id='1016'> +7.4554569e+04 </wgt>
<wgt id='1017'> +7.4636912e+04 </wgt>
<wgt id='1018'> +7.4364520e+04 </wgt>
<wgt id='1019'> +7.4651466e+04 </wgt>
<wgt id='1020'> +7.4300571e+04 </wgt>
<wgt id='1021'> +7.4461916e+04 </wgt>
<wgt id='1022'> +7.4575587e+04 </wgt>
<wgt id='1023'> +7.4653831e+04 </wgt>
<wgt id='1024'> +7.4480678e+04 </wgt>
<wgt id='1025'> +7.5031516e+04 </wgt>
<wgt id='1026'> +7.4279960e+04 </wgt>
<wgt id='1027'> +7.4501401e+04 </wgt>
<wgt id='1028'> +7.4226263e+04 </wgt>
<wgt id='1029'> +7.4655958e+04 </wgt>
<wgt id='1030'> +7.4989952e+04 </wgt>
<wgt id='1031'> +7.4560373e+04 </wgt>
<wgt id='1032'> +7.4694942e+04 </wgt>
<wgt id='1033'> +7.4226200e+04 </wgt>
<wgt id='1034'> +7.4460648e+04 </wgt>
<wgt id='1035'> +7.4251309e+04 </wgt>
<wgt id='1036'> +7.4273404e+04 </wgt>
<wgt id='1037'> +7.5176625e+04 </wgt>
<wgt id='1038'> +7.4779083e+04 </wgt>
<wgt id='1039'> +7.4462755e+04 </wgt>
<wgt id='1040'> +7.4458248e+04 </wgt>
<wgt id='1041'> +7.4712387e+04 </wgt>
<wgt id='1042'> +7.4635489e+04 </wgt>
<wgt id='1043'> +7.4459338e+04 </wgt>
<wgt id='1044'> +7.4509885e+04 </wgt>
<wgt id='1045'> +7.4611964e+04 </wgt>
<wgt id='1046'> +7.4491217e+04 </wgt>
<wgt id='1047'> +7.4440077e+04 </wgt>
<wgt id='1048'> +7.4691861e+04 </wgt>
<wgt id='1049'> +7.4595624e+04 </wgt>
<wgt id='1050'> +7.4524534e+04 </wgt>
<wgt id='1051'> +7.4718374e+04 </wgt>
<wgt id='1052'> +7.4603535e+04 </wgt>
<wgt id='1053'> +7.4205724e+04 </wgt>
<wgt id='1054'> +7.4518040e+04 </wgt>
<wgt id='1055'> +7.4532923e+04 </wgt>
<wgt id='1056'> +7.4708231e+04 </wgt>
<wgt id='1057'> +7.4404292e+04 </wgt>
<wgt id='1058'> +7.4560327e+04 </wgt>
<wgt id='1059'> +7.4462072e+04 </wgt>
<wgt id='1060'> +7.4508779e+04 </wgt>
<wgt id='1061'> +7.4512071e+04 </wgt>
<wgt id='1062'> +7.4639258e+04 </wgt>
<wgt id='1063'> +7.4425004e+04 </wgt>
<wgt id='1064'> +7.4492072e+04 </wgt>
<wgt id='1065'> +7.4522085e+04 </wgt>
<wgt id='1066'> +7.4690620e+04 </wgt>
<wgt id='1067'> +7.4541511e+04 </wgt>
<wgt id='1068'> +7.4556821e+04 </wgt>
<wgt id='1069'> +7.4499478e+04 </wgt>
<wgt id='1070'> +7.4510650e+04 </wgt>
<wgt id='1071'> +7.4502868e+04 </wgt>
<wgt id='1072'> +7.4470840e+04 </wgt>
<wgt id='1073'> +7.4601905e+04 </wgt>
<wgt id='1074'> +7.4536758e+04 </wgt>
<wgt id='1075'> +7.4488896e+04 </wgt>
<wgt id='1076'> +7.4594761e+04 </wgt>
<wgt id='1077'> +7.4540665e+04 </wgt>
<wgt id='1078'> +7.4580272e+04 </wgt>
<wgt id='1079'> +7.4575919e+04 </wgt>
<wgt id='1080'> +7.4438087e+04 </wgt>
<wgt id='1081'> +7.4528577e+04 </wgt>
<wgt id='1082'> +7.4598526e+04 </wgt>
<wgt id='1083'> +7.4495341e+04 </wgt>
<wgt id='1084'> +7.4609411e+04 </wgt>
<wgt id='1085'> +7.4473254e+04 </wgt>
<wgt id='1086'> +7.4493129e+04 </wgt>
<wgt id='1087'> +7.4545937e+04 </wgt>
<wgt id='1088'> +7.4520769e+04 </wgt>
<wgt id='1089'> +7.4463532e+04 </wgt>
<wgt id='1090'> +7.4563298e+04 </wgt>
<wgt id='1091'> +7.4522005e+04 </wgt>
<wgt id='1092'> +7.4507189e+04 </wgt>
<wgt id='1093'> +7.4562798e+04 </wgt>
<wgt id='1094'> +7.4552486e+04 </wgt>
<wgt id='1095'> +7.4547070e+04 </wgt>
<wgt id='1096'> +7.4499811e+04 </wgt>
<wgt id='1097'> +7.4575661e+04 </wgt>
<wgt id='1098'> +7.4498938e+04 </wgt>
<wgt id='1099'> +7.4544436e+04 </wgt>
<wgt id='1100'> +7.4533505e+04 </wgt>
<wgt id='1101'> +7.4531049e+04 </wgt>
<wgt id='1102'> +7.4539265e+04 </wgt>
<wgt id='1103'> +7.4560736e+04 </wgt>
<wgt id='1104'> +7.4534421e+04 </wgt>
<wgt id='1105'> +7.4525217e+04 </wgt>
<wgt id='1106'> +7.4527237e+04 </wgt>
<wgt id='1107'> +7.4519254e+04 </wgt>
<wgt id='1108'> +7.4526017e+04 </wgt>
<wgt id='1109'> +7.4505039e+04 </wgt>
<wgt id='1110'> +7.4519529e+04 </wgt>
<wgt id='1111'> +7.4336991e+04 </wgt>
<wgt id='1112'> +7.4688211e+04 </wgt>
<wgt id='1113'> +7.4519529e+04 </wgt>
<wgt id='1114'> +7.7695007e+04 </wgt>
<wgt id='1115'> +7.4544402e+04 </wgt>
<wgt id='1116'> +6.9734939e+04 </wgt>
<wgt id='1117'> +7.3276202e+04 </wgt>
<wgt id='1118'> +7.3717660e+04 </wgt>
<wgt id='1119'> +7.6828938e+04 </wgt>
<wgt id='1120'> +7.5354506e+04 </wgt>
<wgt id='1121'> +7.2009407e+04 </wgt>
<wgt id='1122'> +7.2874097e+04 </wgt>
<wgt id='1123'> +7.3840907e+04 </wgt>
<wgt id='1124'> +7.4285631e+04 </wgt>
<wgt id='1125'> +7.3220682e+04 </wgt>
<wgt id='1126'> +7.4652042e+04 </wgt>
<wgt id='1127'> +7.3292490e+04 </wgt>
<wgt id='1128'> +7.5271504e+04 </wgt>
<wgt id='1129'> +7.5750196e+04 </wgt>
<wgt id='1130'> +7.7257142e+04 </wgt>
<wgt id='1131'> +7.4441290e+04 </wgt>
<wgt id='1132'> +7.5055468e+04 </wgt>
<wgt id='1133'> +7.2444038e+04 </wgt>
<wgt id='1134'> +7.2838975e+04 </wgt>
<wgt id='1135'> +7.5213098e+04 </wgt>
<wgt id='1136'> +7.5700786e+04 </wgt>
<wgt id='1137'> +7.4687515e+04 </wgt>
<wgt id='1138'> +7.3778644e+04 </wgt>
<wgt id='1139'> +7.4738189e+04 </wgt>
<wgt id='1140'> +7.7701126e+04 </wgt>
<wgt id='1141'> +7.4448546e+04 </wgt>
<wgt id='1142'> +7.6962643e+04 </wgt>
<wgt id='1143'> +7.5796047e+04 </wgt>
<wgt id='1144'> +7.3957254e+04 </wgt>
<wgt id='1145'> +7.3565307e+04 </wgt>
<wgt id='1146'> +7.5128610e+04 </wgt>
<wgt id='1147'> +7.3651487e+04 </wgt>
<wgt id='1148'> +7.5350548e+04 </wgt>
<wgt id='1149'> +7.3950463e+04 </wgt>
<wgt id='1150'> +7.4708741e+04 </wgt>
<wgt id='1151'> +7.4208878e+04 </wgt>
<wgt id='1152'> +7.2967443e+04 </wgt>
<wgt id='1153'> +7.3708136e+04 </wgt>
<wgt id='1154'> +7.4336207e+04 </wgt>
<wgt id='1155'> +7.5833811e+04 </wgt>
<wgt id='1156'> +7.5757901e+04 </wgt>
<wgt id='1157'> +7.5259801e+04 </wgt>
<wgt id='1158'> +7.4331092e+04 </wgt>
<wgt id='1159'> +7.6292085e+04 </wgt>
<wgt id='1160'> +7.5470158e+04 </wgt>
<wgt id='1161'> +7.2364774e+04 </wgt>
<wgt id='1162'> +7.6673070e+04 </wgt>
<wgt id='1163'> +7.6341986e+04 </wgt>
<wgt id='1164'> +7.3170570e+04 </wgt>
<wgt id='1165'> +7.3567129e+04 </wgt>
<wgt id='1166'> +7.5738177e+04 </wgt>
<wgt id='1167'> +7.6633955e+04 </wgt>
<wgt id='1168'> +7.3065327e+04 </wgt>
<wgt id='1169'> +7.4400700e+04 </wgt>
<wgt id='1170'> +7.6756660e+04 </wgt>
<wgt id='1171'> +7.3605478e+04 </wgt>
<wgt id='1172'> +7.4608237e+04 </wgt>
<wgt id='1173'> +7.3901888e+04 </wgt>
<wgt id='1174'> +7.5311426e+04 </wgt>
<wgt id='1175'> +7.5029893e+04 </wgt>
<wgt id='1176'> +7.5484315e+04 </wgt>
<wgt id='1177'> +7.1808314e+04 </wgt>
<wgt id='1178'> +7.5568838e+04 </wgt>
<wgt id='1179'> +7.4123236e+04 </wgt>
<wgt id='1180'> +7.4529494e+04 </wgt>
<wgt id='1181'> +7.5926584e+04 </wgt>
<wgt id='1182'> +7.5741488e+04 </wgt>
<wgt id='1183'> +7.5011510e+04 </wgt>
<wgt id='1184'> +7.3328855e+04 </wgt>
<wgt id='1185'> +7.7292750e+04 </wgt>
<wgt id='1186'> +7.0441586e+04 </wgt>
<wgt id='1187'> +7.2401255e+04 </wgt>
<wgt id='1188'> +7.3995626e+04 </wgt>
<wgt id='1189'> +7.5332428e+04 </wgt>
<wgt id='1190'> +7.3244876e+04 </wgt>
<wgt id='1191'> +7.5041436e+04 </wgt>
<wgt id='1192'> +7.4064008e+04 </wgt>
<wgt id='1193'> +7.5113691e+04 </wgt>
<wgt id='1194'> +7.4452484e+04 </wgt>
<wgt id='1195'> +7.5750196e+04 </wgt>
<wgt id='1196'> +7.3959130e+04 </wgt>
<wgt id='1197'> +7.3862202e+04 </wgt>
<wgt id='1198'> +7.3946174e+04 </wgt>
<wgt id='1199'> +7.6874326e+04 </wgt>
<wgt id='1200'> +7.4424747e+04 </wgt>
<wgt id='1201'> +7.5831261e+04 </wgt>
<wgt id='1202'> +7.1713731e+04 </wgt>
<wgt id='1203'> +7.3919252e+04 </wgt>
<wgt id='1204'> +7.4687853e+04 </wgt>
<wgt id='1205'> +7.3321874e+04 </wgt>
<wgt id='1206'> +7.4338698e+04 </wgt>
<wgt id='1207'> +7.6033251e+04 </wgt>
<wgt id='1208'> +7.3945918e+04 </wgt>
<wgt id='1209'> +7.4047235e+04 </wgt>
<wgt id='1210'> +7.4199353e+04 </wgt>
<wgt id='1211'> +7.3618861e+04 </wgt>
<wgt id='1212'> +7.3276668e+04 </wgt>
<wgt id='1213'> +7.4273955e+04 </wgt>
<wgt id='1214'> +7.4532417e+04 </wgt>
<wgt id='1215'> +7.4467563e+04 </wgt>
<wgt id='1216'> +7.4291117e+04 </wgt>
<wgt id='1217'> +7.4083967e+04 </wgt>
<wgt id='1218'> +7.4265034e+04 </wgt>
<wgt id='1219'> +7.4760515e+04 </wgt>
<wgt id='1220'> +7.4638059e+04 </wgt>
<wgt id='1221'> +7.4961226e+04 </wgt>
<wgt id='1222'> +7.4739378e+04 </wgt>
<wgt id='1223'> +7.3367626e+04 </wgt>
<wgt id='1224'> +7.3424151e+04 </wgt>
<wgt id='1225'> +7.3460477e+04 </wgt>
<wgt id='1226'> +7.3273285e+04 </wgt>
<wgt id='1227'> +7.3745523e+04 </wgt>
<wgt id='1228'> +7.3429860e+04 </wgt>
<wgt id='1229'> +7.3146345e+04 </wgt>
<wgt id='1230'> +7.3530324e+04 </wgt>
<wgt id='1231'> +7.3518673e+04 </wgt>
<wgt id='1232'> +7.3505806e+04 </wgt>
<wgt id='1233'> +7.2997098e+04 </wgt>
<wgt id='1234'> +7.3262682e+04 </wgt>
<wgt id='1235'> +7.3472233e+04 </wgt>
<wgt id='1236'> +7.3637943e+04 </wgt>
<wgt id='1237'> +7.3379129e+04 </wgt>
<wgt id='1238'> +7.3097105e+04 </wgt>
<wgt id='1239'> +7.3853084e+04 </wgt>
<wgt id='1240'> +7.3135091e+04 </wgt>
<wgt id='1241'> +7.3602895e+04 </wgt>
<wgt id='1242'> +7.3441049e+04 </wgt>
<wgt id='1243'> +7.3128466e+04 </wgt>
<wgt id='1244'> +7.3670445e+04 </wgt>
<wgt id='1245'> +7.3307108e+04 </wgt>
<wgt id='1246'> +7.3028219e+04 </wgt>
<wgt id='1247'> +7.3826983e+04 </wgt>
<wgt id='1248'> +7.3176255e+04 </wgt>
<wgt id='1249'> +7.3463647e+04 </wgt>
<wgt id='1250'> +7.3313271e+04 </wgt>
<wgt id='1251'> +7.3298363e+04 </wgt>
<wgt id='1252'> +7.3907959e+04 </wgt>
<wgt id='1253'> +7.3392102e+04 </wgt>
<wgt id='1254'> +7.3124867e+04 </wgt>
<wgt id='1255'> +7.3470344e+04 </wgt>
<wgt id='1256'> +7.3276177e+04 </wgt>
<wgt id='1257'> +7.3459922e+04 </wgt>
<wgt id='1258'> +7.3495574e+04 </wgt>
<wgt id='1259'> +7.3395228e+04 </wgt>
<wgt id='1260'> +7.3298384e+04 </wgt>
<wgt id='1261'> +7.3396467e+04 </wgt>
<wgt id='1262'> +7.3309756e+04 </wgt>
<wgt id='1263'> +7.3347799e+04 </wgt>
<wgt id='1264'> +7.3265941e+04 </wgt>
<wgt id='1265'> +7.3282357e+04 </wgt>
<wgt id='1266'> +7.3348194e+04 </wgt>
<wgt id='1267'> +7.3355298e+04 </wgt>
<wgt id='1268'> +7.3387776e+04 </wgt>
<wgt id='1269'> +7.3366715e+04 </wgt>
<wgt id='1270'> +7.3327035e+04 </wgt>
<wgt id='1271'> +7.3449804e+04 </wgt>
<wgt id='1272'> +7.3508789e+04 </wgt>
<wgt id='1273'> +7.3332961e+04 </wgt>
<wgt id='1274'> +7.3287149e+04 </wgt>
<wgt id='1275'> +7.3317248e+04 </wgt>
<wgt id='1276'> +7.3286322e+04 </wgt>
<wgt id='1277'> +7.3409710e+04 </wgt>
<wgt id='1278'> +7.3391525e+04 </wgt>
<wgt id='1279'> +7.3554563e+04 </wgt>
<wgt id='1280'> +7.3303342e+04 </wgt>
<wgt id='1281'> +7.3282248e+04 </wgt>
<wgt id='1282'> +7.3345345e+04 </wgt>
<wgt id='1283'> +7.3441029e+04 </wgt>
<wgt id='1284'> +7.3376185e+04 </wgt>
<wgt id='1285'> +7.3385654e+04 </wgt>
<wgt id='1286'> +7.3367795e+04 </wgt>
<wgt id='1287'> +7.3417623e+04 </wgt>
<wgt id='1288'> +7.3406308e+04 </wgt>
<wgt id='1289'> +7.3299266e+04 </wgt>
<wgt id='1290'> +7.3338407e+04 </wgt>
<wgt id='1291'> +7.3370946e+04 </wgt>
<wgt id='1292'> +7.3300891e+04 </wgt>
<wgt id='1293'> +7.3305557e+04 </wgt>
<wgt id='1294'> +7.3393850e+04 </wgt>
<wgt id='1295'> +7.3428916e+04 </wgt>
<wgt id='1296'> +7.3326008e+04 </wgt>
<wgt id='1297'> +7.3352381e+04 </wgt>
<wgt id='1298'> +7.3244841e+04 </wgt>
<wgt id='1299'> +7.3344818e+04 </wgt>
<wgt id='1300'> +7.3369693e+04 </wgt>
<wgt id='1301'> +7.3359151e+04 </wgt>
<wgt id='1302'> +7.3313012e+04 </wgt>
<wgt id='1303'> +7.3406359e+04 </wgt>
<wgt id='1304'> +7.3385462e+04 </wgt>
<wgt id='1305'> +7.3407590e+04 </wgt>
<wgt id='1306'> +7.3434645e+04 </wgt>
<wgt id='1307'> +7.3362302e+04 </wgt>
<wgt id='1308'> +7.3406427e+04 </wgt>
<wgt id='1309'> +7.3330273e+04 </wgt>
<wgt id='1310'> +7.3374872e+04 </wgt>
<wgt id='1311'> +7.3342581e+04 </wgt>
<wgt id='1312'> +7.3356266e+04 </wgt>
<wgt id='1313'> +7.3397098e+04 </wgt>
<wgt id='1314'> +7.3366393e+04 </wgt>
<wgt id='1315'> +7.3382207e+04 </wgt>
<wgt id='1316'> +7.3405343e+04 </wgt>
<wgt id='1317'> +7.3340338e+04 </wgt>
<wgt id='1318'> +7.3387607e+04 </wgt>
<wgt id='1319'> +7.3385161e+04 </wgt>
<wgt id='1320'> +7.3386260e+04 </wgt>
<wgt id='1321'> +7.3334799e+04 </wgt>
<wgt id='1322'> +7.3412050e+04 </wgt>
<wgt id='1323'> +7.3359256e+04 </wgt>
<wgt id='1324'> +7.3240560e+04 </wgt>
<wgt id='1325'> +7.3630395e+04 </wgt>
<wgt id='1326'> +7.1899314e+04 </wgt>
<wgt id='1327'> +6.8685618e+04 </wgt>
<wgt id='1328'> +7.4573552e+04 </wgt>
<wgt id='1329'> +7.3866845e+04 </wgt>
<wgt id='1330'> +7.4924634e+04 </wgt>
<wgt id='1331'> +7.4973223e+04 </wgt>
<wgt id='1332'> +7.4207891e+04 </wgt>
<wgt id='1333'> +7.4472238e+04 </wgt>
<wgt id='1334'> +7.2755978e+04 </wgt>
<wgt id='1335'> +7.4591069e+04 </wgt>
<wgt id='1336'> +7.5157814e+04 </wgt>
<wgt id='1337'> +7.4267002e+04 </wgt>
<wgt id='1338'> +7.5255208e+04 </wgt>
<wgt id='1339'> +7.5155065e+04 </wgt>
<wgt id='1340'> +7.3146842e+04 </wgt>
<wgt id='1341'> +7.4057810e+04 </wgt>
<wgt id='1342'> +7.5093039e+04 </wgt>
<wgt id='1343'> +7.5499675e+04 </wgt>
<wgt id='1344'> +7.4749857e+04 </wgt>
<wgt id='1345'> +7.5548102e+04 </wgt>
<wgt id='1346'> +7.5715314e+04 </wgt>
<wgt id='1347'> +7.5306406e+04 </wgt>
<wgt id='1348'> +7.3279675e+04 </wgt>
<wgt id='1349'> +7.5259084e+04 </wgt>
<wgt id='1350'> +7.4121572e+04 </wgt>
<wgt id='1351'> +7.4412448e+04 </wgt>
<wgt id='1352'> +7.5692201e+04 </wgt>
<wgt id='1353'> +7.6258736e+04 </wgt>
<wgt id='1354'> +7.4519646e+04 </wgt>
<wgt id='1355'> +7.4568400e+04 </wgt>
<wgt id='1356'> +7.4192762e+04 </wgt>
<wgt id='1357'> +7.4464885e+04 </wgt>
<wgt id='1358'> +7.4654401e+04 </wgt>
<wgt id='1359'> +7.4418797e+04 </wgt>
<wgt id='1360'> +7.5371071e+04 </wgt>
<wgt id='1361'> +7.5772012e+04 </wgt>
<wgt id='1362'> +7.5914846e+04 </wgt>
<wgt id='1363'> +7.5002589e+04 </wgt>
<wgt id='1364'> +7.4920524e+04 </wgt>
<wgt id='1365'> +7.4860017e+04 </wgt>
<wgt id='1366'> +7.4333958e+04 </wgt>
<wgt id='1367'> +7.5863759e+04 </wgt>
<wgt id='1368'> +7.4343755e+04 </wgt>
<wgt id='1369'> +7.3587886e+04 </wgt>
<wgt id='1370'> +7.3629102e+04 </wgt>
<wgt id='1371'> +7.5171721e+04 </wgt>
<wgt id='1372'> +7.5620176e+04 </wgt>
<wgt id='1373'> +7.4063904e+04 </wgt>
<wgt id='1374'> +7.4701527e+04 </wgt>
<wgt id='1375'> +7.4370815e+04 </wgt>
<wgt id='1376'> +7.4623810e+04 </wgt>
<wgt id='1377'> +7.4403120e+04 </wgt>
<wgt id='1378'> +7.3181781e+04 </wgt>
<wgt id='1379'> +7.4655785e+04 </wgt>
<wgt id='1380'> +7.5093938e+04 </wgt>
<wgt id='1381'> +7.4845609e+04 </wgt>
<wgt id='1382'> +7.3786315e+04 </wgt>
<wgt id='1383'> +7.4355677e+04 </wgt>
<wgt id='1384'> +7.4749938e+04 </wgt>
<wgt id='1385'> +7.3626205e+04 </wgt>
<wgt id='1386'> +7.5084641e+04 </wgt>
<wgt id='1387'> +7.2928125e+04 </wgt>
<wgt id='1388'> +7.4728816e+04 </wgt>
<wgt id='1389'> +7.4175909e+04 </wgt>
<wgt id='1390'> +7.3663630e+04 </wgt>
<wgt id='1391'> +7.4355324e+04 </wgt>
<wgt id='1392'> +7.4105748e+04 </wgt>
<wgt id='1393'> +7.2818307e+04 </wgt>
<wgt id='1394'> +7.4860017e+04 </wgt>
<wgt id='1395'> +7.5534523e+04 </wgt>
<wgt id='1396'> +7.3369768e+04 </wgt>
<wgt id='1397'> +7.5027236e+04 </wgt>
<wgt id='1398'> +7.5267655e+04 </wgt>
<wgt id='1399'> +7.4804392e+04 </wgt>
<wgt id='1400'> +7.5514285e+04 </wgt>
<wgt id='1401'> +7.4934463e+04 </wgt>
<wgt id='1402'> +7.4709654e+04 </wgt>
<wgt id='1403'> +7.4995711e+04 </wgt>
<wgt id='1404'> +7.4986560e+04 </wgt>
<wgt id='1405'> +7.4174978e+04 </wgt>
<wgt id='1406'> +7.3346049e+04 </wgt>
<wgt id='1407'> +7.5489484e+04 </wgt>
<wgt id='1408'> +7.4413490e+04 </wgt>
<wgt id='1409'> +7.3070795e+04 </wgt>
<wgt id='1410'> +7.5034872e+04 </wgt>
<wgt id='1411'> +7.5137782e+04 </wgt>
<wgt id='1412'> +7.4884187e+04 </wgt>
<wgt id='1413'> +7.5467242e+04 </wgt>
<wgt id='1414'> +7.3581200e+04 </wgt>
<wgt id='1415'> +7.3873193e+04 </wgt>
<wgt id='1416'> +7.4253182e+04 </wgt>
<wgt id='1417'> +7.4502061e+04 </wgt>
<wgt id='1418'> +7.5336154e+04 </wgt>
<wgt id='1419'> +7.4041265e+04 </wgt>
<wgt id='1420'> +7.3856829e+04 </wgt>
<wgt id='1421'> +7.4892857e+04 </wgt>
<wgt id='1422'> +7.4476489e+04 </wgt>
<wgt id='1423'> +7.5324432e+04 </wgt>
<wgt id='1424'> +7.2577163e+04 </wgt>
<wgt id='1425'> +7.3965322e+04 </wgt>
<wgt id='1426'> +7.3990648e+04 </wgt>
<wgt id='1427'> +7.5152961e+04 </wgt>
<wgt id='1428'> +7.5078773e+04 </wgt>
<wgt id='1429'> +7.4684645e+04 </wgt>
<wgt id='1430'> +7.4347983e+04 </wgt>
<wgt id='1431'> +7.4513900e+04 </wgt>
<wgt id='1432'> +7.4618436e+04 </wgt>
<wgt id='1433'> +7.4579082e+04 </wgt>
<wgt id='1434'> +7.4483301e+04 </wgt>
<wgt id='1435'> +7.4382110e+04 </wgt>
<wgt id='1436'> +7.4224794e+04 </wgt>
<wgt id='1437'> +7.4874308e+04 </wgt>
<wgt id='1438'> +7.4699783e+04 </wgt>
<wgt id='1439'> +7.4273624e+04 </wgt>
<wgt id='1440'> +7.4504891e+04 </wgt>
<wgt id='1441'> +7.4384523e+04 </wgt>
<wgt id='1442'> +7.4628595e+04 </wgt>
<wgt id='1443'> +7.4436062e+04 </wgt>
<wgt id='1444'> +7.4277938e+04 </wgt>
<wgt id='1445'> +7.4596188e+04 </wgt>
<wgt id='1446'> +7.4324174e+04 </wgt>
<wgt id='1447'> +7.4343584e+04 </wgt>
<wgt id='1448'> +7.4624992e+04 </wgt>
<wgt id='1449'> +7.4535279e+04 </wgt>
<wgt id='1450'> +7.4457632e+04 </wgt>
<wgt id='1451'> +7.4429707e+04 </wgt>
<wgt id='1452'> +7.4399682e+04 </wgt>
<wgt id='1453'> +7.4503316e+04 </wgt>
<wgt id='1454'> +7.4450866e+04 </wgt>
<wgt id='1455'> +7.4604347e+04 </wgt>
<wgt id='1456'> +7.4523439e+04 </wgt>
<wgt id='1457'> +7.4542692e+04 </wgt>
<wgt id='1458'> +7.4376873e+04 </wgt>
<wgt id='1459'> +7.4382451e+04 </wgt>
<wgt id='1460'> +7.4557422e+04 </wgt>
<wgt id='1461'> +7.4483379e+04 </wgt>
<wgt id='1462'> +7.4507053e+04 </wgt>
<wgt id='1463'> +7.4523046e+04 </wgt>
<wgt id='1464'> +7.4470972e+04 </wgt>
<wgt id='1465'> +7.4538425e+04 </wgt>
<wgt id='1466'> +7.4494989e+04 </wgt>
<wgt id='1467'> +7.4562807e+04 </wgt>
<wgt id='1468'> +7.4513397e+04 </wgt>
<wgt id='1469'> +7.4496631e+04 </wgt>
<wgt id='1470'> +7.4504106e+04 </wgt>
<wgt id='1471'> +7.4480545e+04 </wgt>
<wgt id='1472'> +7.4516629e+04 </wgt>
<wgt id='1473'> +7.4553297e+04 </wgt>
<wgt id='1474'> +7.4527862e+04 </wgt>
<wgt id='1475'> +7.4510518e+04 </wgt>
<wgt id='1476'> +7.4500873e+04 </wgt>
<wgt id='1477'> +7.4505302e+04 </wgt>
<wgt id='1478'> +7.4497375e+04 </wgt>
<wgt id='1479'> +7.4523051e+04 </wgt>
<wgt id='1480'> +7.4508914e+04 </wgt>
<wgt id='1481'> +7.4531209e+04 </wgt>
<wgt id='1482'> +7.4684645e+04 </wgt>
<wgt id='1483'> +7.4347983e+04 </wgt>
<wgt id='1484'> +7.4526737e+04 </wgt>
<wgt id='1485'> +7.4870570e+04 </wgt>
<wgt id='1486'> +7.4598742e+04 </wgt>
<wgt id='1487'> +7.5068389e+04 </wgt>
<wgt id='1488'> +7.4929575e+04 </wgt>
<wgt id='1489'> +7.4814851e+04 </wgt>
<wgt id='1490'> +7.3939791e+04 </wgt>
<wgt id='1491'> +7.3514861e+04 </wgt>
<wgt id='1492'> +7.3987896e+04 </wgt>
<wgt id='1493'> +7.4940084e+04 </wgt>
<wgt id='1494'> +7.3913672e+04 </wgt>
<wgt id='1495'> +7.4230467e+04 </wgt>
<wgt id='1496'> +7.4319227e+04 </wgt>
<wgt id='1497'> +7.3427076e+04 </wgt>
<wgt id='1498'> +7.5413275e+04 </wgt>
<wgt id='1499'> +7.4884046e+04 </wgt>
<wgt id='1500'> +7.3443526e+04 </wgt>
<wgt id='1501'> +7.4327522e+04 </wgt>
<wgt id='1502'> +7.5295747e+04 </wgt>
<wgt id='1503'> +7.3626284e+04 </wgt>
<wgt id='1504'> +7.4339679e+04 </wgt>
<wgt id='1505'> +7.4236971e+04 </wgt>
<wgt id='1506'> +7.5043496e+04 </wgt>
<wgt id='1507'> +7.4323438e+04 </wgt>
<wgt id='1508'> +7.3487100e+04 </wgt>
<wgt id='1509'> +7.3762754e+04 </wgt>
<wgt id='1510'> +7.3743263e+04 </wgt>
<wgt id='1511'> +7.3789762e+04 </wgt>
<wgt id='1512'> +7.4919312e+04 </wgt>
<wgt id='1513'> +7.3831512e+04 </wgt>
<wgt id='1514'> +7.5027414e+04 </wgt>
<wgt id='1515'> +7.4434641e+04 </wgt>
<wgt id='1516'> +7.3736170e+04 </wgt>
<wgt id='1517'> +7.4791687e+04 </wgt>
<wgt id='1518'> +7.5015655e+04 </wgt>
<wgt id='1519'> +7.4533519e+04 </wgt>
<wgt id='1520'> +7.3468853e+04 </wgt>
<wgt id='1521'> +7.4147623e+04 </wgt>
<wgt id='1522'> +7.4617109e+04 </wgt>
<wgt id='1523'> +7.4463359e+04 </wgt>
<wgt id='1524'> +7.5007786e+04 </wgt>
<wgt id='1525'> +7.5021684e+04 </wgt>
<wgt id='1526'> +7.4339832e+04 </wgt>
<wgt id='1527'> +7.4868335e+04 </wgt>
<wgt id='1528'> +7.4464235e+04 </wgt>
<wgt id='1529'> +7.4753290e+04 </wgt>
<wgt id='1530'> +7.3994781e+04 </wgt>
<wgt id='1531'> +7.4084624e+04 </wgt>
<wgt id='1532'> +7.4039662e+04 </wgt>
<wgt id='1533'> +7.4394221e+04 </wgt>
<wgt id='1534'> +7.4238314e+04 </wgt>
<wgt id='1535'> +7.4131848e+04 </wgt>
<wgt id='1536'> +7.5149208e+04 </wgt>
<wgt id='1537'> +7.3783093e+04 </wgt>
<wgt id='1538'> +7.5787182e+04 </wgt>
<wgt id='1539'> +7.5076031e+04 </wgt>
<wgt id='1540'> +7.4628193e+04 </wgt>
<wgt id='1541'> +7.4972031e+04 </wgt>
<wgt id='1542'> +7.5045442e+04 </wgt>
<wgt id='1543'> +7.4801461e+04 </wgt>
<wgt id='1544'> +7.5431329e+04 </wgt>
<wgt id='1545'> +7.4627546e+04 </wgt>
<wgt id='1546'> +7.4606722e+04 </wgt>
<wgt id='1547'> +7.5066930e+04 </wgt>
<wgt id='1548'> +7.4353455e+04 </wgt>
<wgt id='1549'> +7.4760604e+04 </wgt>
<wgt id='1550'> +7.4376847e+04 </wgt>
<wgt id='1551'> +7.5459691e+04 </wgt>
<wgt id='1552'> +7.4472265e+04 </wgt>
<wgt id='1553'> +7.5380077e+04 </wgt>
<wgt id='1554'> +7.2734432e+04 </wgt>
<wgt id='1555'> +7.4950755e+04 </wgt>
<wgt id='1556'> +7.5073907e+04 </wgt>
<wgt id='1557'> +7.4089893e+04 </wgt>
<wgt id='1558'> +7.5049054e+04 </wgt>
<wgt id='1559'> +7.5516353e+04 </wgt>
<wgt id='1560'> +7.5337483e+04 </wgt>
<wgt id='1561'> +7.4803571e+04 </wgt>
<wgt id='1562'> +7.4628379e+04 </wgt>
<wgt id='1563'> +7.5327036e+04 </wgt>
<wgt id='1564'> +7.4081653e+04 </wgt>
<wgt id='1565'> +7.3796510e+04 </wgt>
<wgt id='1566'> +7.4543052e+04 </wgt>
<wgt id='1567'> +7.5647641e+04 </wgt>
<wgt id='1568'> +7.4516340e+04 </wgt>
<wgt id='1569'> +7.5462576e+04 </wgt>
<wgt id='1570'> +7.5041868e+04 </wgt>
<wgt id='1571'> +7.5382787e+04 </wgt>
<wgt id='1572'> +7.4287838e+04 </wgt>
<wgt id='1573'> +7.5065954e+04 </wgt>
<wgt id='1574'> +7.2985072e+04 </wgt>
<wgt id='1575'> +7.4546972e+04 </wgt>
<wgt id='1576'> +7.5295101e+04 </wgt>
<wgt id='1577'> +7.4119815e+04 </wgt>
<wgt id='1578'> +7.4169793e+04 </wgt>
<wgt id='1579'> +7.4578135e+04 </wgt>
<wgt id='1580'> +7.4968627e+04 </wgt>
<wgt id='1581'> +7.4848133e+04 </wgt>
<wgt id='1582'> +7.5576166e+04 </wgt>
<wgt id='1583'> +7.2609293e+04 </wgt>
<wgt id='1584'> +7.3113522e+04 </wgt>
<wgt id='1585'> +7.2745831e+04 </wgt>
<wgt id='1586'> +7.0162908e+04 </wgt>
<wgt id='1587'> +7.4666187e+04 </wgt>
<wgt id='1588'> +7.4684645e+04 </wgt>
<wgt id='1589'> +7.4475586e+04 </wgt>
<wgt id='1590'> +7.4259896e+04 </wgt>
<wgt id='1591'> +7.4347983e+04 </wgt>
<wgt id='1592'> +7.4111530e+04 </wgt>
<wgt id='1593'> +7.3192778e+04 </wgt>
<wgt id='1594'> +7.3103602e+04 </wgt>
<wgt id='1595'> +7.2435324e+04 </wgt>
<wgt id='1596'> +7.2266686e+04 </wgt>
<wgt id='1597'> +7.4248940e+04 </wgt>
<wgt id='1598'> +7.2077425e+04 </wgt>
<wgt id='1599'> +7.3986030e+04 </wgt>
<wgt id='1600'> +7.1234752e+04 </wgt>
<wgt id='1601'> +7.4947475e+04 </wgt>
<wgt id='1602'> +7.2565629e+04 </wgt>
<wgt id='1603'> +7.3864668e+04 </wgt>
<wgt id='1604'> +7.3508836e+04 </wgt>
<wgt id='1605'> +7.3158189e+04 </wgt>
<wgt id='1606'> +7.2937865e+04 </wgt>
<wgt id='1607'> +7.2663447e+04 </wgt>
<wgt id='1608'> +7.2262508e+04 </wgt>
<wgt id='1609'> +7.3259489e+04 </wgt>
<wgt id='1610'> +7.2205171e+04 </wgt>
<wgt id='1611'> +7.3799615e+04 </wgt>
<wgt id='1612'> +7.4331219e+04 </wgt>
<wgt id='1613'> +7.0763913e+04 </wgt>
<wgt id='1614'> +7.2991348e+04 </wgt>
<wgt id='1615'> +7.3492421e+04 </wgt>
<wgt id='1616'> +7.2244198e+04 </wgt>
<wgt id='1617'> +7.3703506e+04 </wgt>
<wgt id='1618'> +7.3480311e+04 </wgt>
<wgt id='1619'> +7.2544251e+04 </wgt>
<wgt id='1620'> +7.2783552e+04 </wgt>
<wgt id='1621'> +7.3305069e+04 </wgt>
<wgt id='1622'> +7.2997985e+04 </wgt>
<wgt id='1623'> +7.2733073e+04 </wgt>
<wgt id='1624'> +7.3281713e+04 </wgt>
<wgt id='1625'> +7.2087218e+04 </wgt>
<wgt id='1626'> +7.2159560e+04 </wgt>
<wgt id='1627'> +7.3878037e+04 </wgt>
<wgt id='1628'> +7.4072963e+04 </wgt>
<wgt id='1629'> +7.2624033e+04 </wgt>
<wgt id='1630'> +7.4127330e+04 </wgt>
<wgt id='1631'> +7.1753840e+04 </wgt>
<wgt id='1632'> +7.2045870e+04 </wgt>
<wgt id='1633'> +7.3922950e+04 </wgt>
<wgt id='1634'> +7.4310648e+04 </wgt>
<wgt id='1635'> +7.1985842e+04 </wgt>
<wgt id='1636'> +7.2666330e+04 </wgt>
<wgt id='1637'> +7.3791574e+04 </wgt>
<wgt id='1638'> +7.2627198e+04 </wgt>
<wgt id='1639'> +7.3368045e+04 </wgt>
<wgt id='1640'> +7.4645258e+04 </wgt>
<wgt id='1641'> +7.1801803e+04 </wgt>
<wgt id='1642'> +7.3035502e+04 </wgt>
<wgt id='1643'> +7.2878675e+04 </wgt>
<wgt id='1644'> +7.3540533e+04 </wgt>
<wgt id='1645'> +7.2008955e+04 </wgt>
<wgt id='1646'> +7.3275552e+04 </wgt>
<wgt id='1647'> +7.3220561e+04 </wgt>
<wgt id='1648'> +7.3336359e+04 </wgt>
<wgt id='1649'> +7.3207621e+04 </wgt>
<wgt id='1650'> +7.3463291e+04 </wgt>
<wgt id='1651'> +7.2871013e+04 </wgt>
<wgt id='1652'> +7.2844636e+04 </wgt>
<wgt id='1653'> +7.3013048e+04 </wgt>
<wgt id='1654'> +7.3391119e+04 </wgt>
<wgt id='1655'> +7.3609210e+04 </wgt>
<wgt id='1656'> +7.4151059e+04 </wgt>
<wgt id='1657'> +7.3760350e+04 </wgt>
<wgt id='1658'> +7.3902708e+04 </wgt>
<wgt id='1659'> +7.3679632e+04 </wgt>
<wgt id='1660'> +7.4583188e+04 </wgt>
<wgt id='1661'> +7.4877378e+04 </wgt>
<wgt id='1662'> +7.3127887e+04 </wgt>
<wgt id='1663'> +7.3621531e+04 </wgt>
<wgt id='1664'> +7.3650099e+04 </wgt>
<wgt id='1665'> +7.3268138e+04 </wgt>
<wgt id='1666'> +7.4172205e+04 </wgt>
<wgt id='1667'> +7.3202632e+04 </wgt>
<wgt id='1668'> +7.4798201e+04 </wgt>
<wgt id='1669'> +7.4554348e+04 </wgt>
<wgt id='1670'> +7.3289079e+04 </wgt>
<wgt id='1671'> +7.4244754e+04 </wgt>
<wgt id='1672'> +7.4021924e+04 </wgt>
<wgt id='1673'> +7.4731418e+04 </wgt>
<wgt id='1674'> +7.3767796e+04 </wgt>
<wgt id='1675'> +7.4667460e+04 </wgt>
<wgt id='1676'> +7.3631838e+04 </wgt>
<wgt id='1677'> +7.3228829e+04 </wgt>
<wgt id='1678'> +7.4868427e+04 </wgt>
<wgt id='1679'> +7.4048706e+04 </wgt>
<wgt id='1680'> +7.4864852e+04 </wgt>
<wgt id='1681'> +7.3531393e+04 </wgt>
<wgt id='1682'> +7.4196666e+04 </wgt>
<wgt id='1683'> +7.4770136e+04 </wgt>
<wgt id='1684'> +7.3561555e+04 </wgt>
<wgt id='1685'> +7.4822436e+04 </wgt>
<wgt id='1686'> +7.3223587e+04 </wgt>
<wgt id='1687'> +7.4858069e+04 </wgt>
<wgt id='1688'> +7.2973725e+04 </wgt>
<wgt id='1689'> +7.4553969e+04 </wgt>
<wgt id='1690'> +7.3983938e+04 </wgt>
<wgt id='1691'> +7.3929173e+04 </wgt>
<wgt id='1692'> +7.3897095e+04 </wgt>
<wgt id='1693'> +7.5141782e+04 </wgt>
<wgt id='1694'> +7.3546001e+04 </wgt>
<wgt id='1695'> +7.4156672e+04 </wgt>
<wgt id='1696'> +7.3815396e+04 </wgt>
<wgt id='1697'> +7.4826941e+04 </wgt>
<wgt id='1698'> +7.3621965e+04 </wgt>
<wgt id='1699'> +7.2747530e+04 </wgt>
<wgt id='1700'> +7.5863230e+04 </wgt>
<wgt id='1701'> +7.3871954e+04 </wgt>
<wgt id='1702'> +7.4533415e+04 </wgt>
<wgt id='1703'> +7.4364507e+04 </wgt>
<wgt id='1704'> +7.4257563e+04 </wgt>
<wgt id='1705'> +7.3260676e+04 </wgt>
<wgt id='1706'> +7.4719795e+04 </wgt>
<wgt id='1707'> +7.2786802e+04 </wgt>
<wgt id='1708'> +7.5095646e+04 </wgt>
<wgt id='1709'> +7.3686763e+04 </wgt>
<wgt id='1710'> +7.4772913e+04 </wgt>
<wgt id='1711'> +7.3090356e+04 </wgt>
<wgt id='1712'> +7.4641225e+04 </wgt>
<wgt id='1713'> +7.3896998e+04 </wgt>
<wgt id='1714'> +7.4138434e+04 </wgt>
<wgt id='1715'> +7.1999370e+04 </wgt>
<wgt id='1716'> +7.4275709e+04 </wgt>
<wgt id='1717'> +7.0512483e+04 </wgt>
<wgt id='1718'> +7.0561355e+04 </wgt>
<wgt id='1719'> +7.0448550e+04 </wgt>
<wgt id='1720'> +7.0315371e+04 </wgt>
<wgt id='1721'> +7.0692758e+04 </wgt>
<wgt id='1722'> +7.0366996e+04 </wgt>
<wgt id='1723'> +7.0751101e+04 </wgt>
<wgt id='1724'> +7.0772070e+04 </wgt>
<wgt id='1725'> +7.0301640e+04 </wgt>
<wgt id='1726'> +7.0409571e+04 </wgt>
<wgt id='1727'> +7.0618373e+04 </wgt>
<wgt id='1728'> +6.9870754e+04 </wgt>
<wgt id='1729'> +7.1135978e+04 </wgt>
<wgt id='1730'> +7.0722397e+04 </wgt>
<wgt id='1731'> +7.0363261e+04 </wgt>
<wgt id='1732'> +7.0813036e+04 </wgt>
<wgt id='1733'> +7.0813036e+04 </wgt>
<wgt id='1734'> +7.0497281e+04 </wgt>
<wgt id='1735'> +7.0519108e+04 </wgt>
<wgt id='1736'> +7.0528933e+04 </wgt>
<wgt id='1737'> +7.0493207e+04 </wgt>
<wgt id='1738'> +7.0815932e+04 </wgt>
<wgt id='1739'> +6.9973454e+04 </wgt>
<wgt id='1740'> +7.0419389e+04 </wgt>
<wgt id='1741'> +7.0735064e+04 </wgt>
<wgt id='1742'> +7.0659976e+04 </wgt>
<wgt id='1743'> +7.0345570e+04 </wgt>
<wgt id='1744'> +7.0365473e+04 </wgt>
<wgt id='1745'> +7.0913707e+04 </wgt>
<wgt id='1746'> +7.0327624e+04 </wgt>
<wgt id='1747'> +7.0599100e+04 </wgt>
<wgt id='1748'> +7.0619925e+04 </wgt>
<wgt id='1749'> +7.0100223e+04 </wgt>
<wgt id='1750'> +7.0491089e+04 </wgt>
<wgt id='1751'> +7.0534819e+04 </wgt>
<wgt id='1752'> +7.0282778e+04 </wgt>
<wgt id='1753'> +7.0812363e+04 </wgt>
<wgt id='1754'> +7.0580137e+04 </wgt>
<wgt id='1755'> +7.0470191e+04 </wgt>
<wgt id='1756'> +7.0262518e+04 </wgt>
<wgt id='1757'> +7.1155345e+04 </wgt>
<wgt id='1758'> +7.0887092e+04 </wgt>
<wgt id='1759'> +7.0065636e+04 </wgt>
<wgt id='1760'> +7.1050800e+04 </wgt>
<wgt id='1761'> +7.0074045e+04 </wgt>
<wgt id='1762'> +7.0485032e+04 </wgt>
<wgt id='1763'> +7.0285760e+04 </wgt>
<wgt id='1764'> +7.0374171e+04 </wgt>
<wgt id='1765'> +7.1151479e+04 </wgt>
<wgt id='1766'> +7.0450365e+04 </wgt>
<wgt id='1767'> +7.0631659e+04 </wgt>
<wgt id='1768'> +7.0372358e+04 </wgt>
<wgt id='1769'> +7.0640019e+04 </wgt>
<wgt id='1770'> +7.0318892e+04 </wgt>
<wgt id='1771'> +7.0612341e+04 </wgt>
<wgt id='1772'> +7.0786967e+04 </wgt>
<wgt id='1773'> +7.0309167e+04 </wgt>
<wgt id='1774'> +7.0159415e+04 </wgt>
<wgt id='1775'> +7.0740487e+04 </wgt>
<wgt id='1776'> +7.0550143e+04 </wgt>
<wgt id='1777'> +7.0511648e+04 </wgt>
<wgt id='1778'> +7.0189050e+04 </wgt>
<wgt id='1779'> +7.0551444e+04 </wgt>
<wgt id='1780'> +7.1181294e+04 </wgt>
<wgt id='1781'> +7.0625835e+04 </wgt>
<wgt id='1782'> +7.0512483e+04 </wgt>
<wgt id='1783'> +7.0496832e+04 </wgt>
<wgt id='1784'> +7.2420628e+04 </wgt>
<wgt id='1785'> +7.2693011e+04 </wgt>
<wgt id='1786'> +7.1216265e+04 </wgt>
<wgt id='1787'> +7.2486806e+04 </wgt>
<wgt id='1788'> +7.2253409e+04 </wgt>
<wgt id='1789'> +7.2503953e+04 </wgt>
<wgt id='1790'> +7.2775597e+04 </wgt>
<wgt id='1791'> +7.2621967e+04 </wgt>
<wgt id='1792'> +7.1883922e+04 </wgt>
<wgt id='1793'> +7.2797374e+04 </wgt>
<wgt id='1794'> +7.2443826e+04 </wgt>
<wgt id='1795'> +7.1904360e+04 </wgt>
<wgt id='1796'> +7.2510159e+04 </wgt>
<wgt id='1797'> +7.2415099e+04 </wgt>
<wgt id='1798'> +7.2678765e+04 </wgt>
<wgt id='1799'> +7.2920218e+04 </wgt>
<wgt id='1800'> +7.2582490e+04 </wgt>
<wgt id='1801'> +7.3619179e+04 </wgt>
<wgt id='1802'> +7.3164653e+04 </wgt>
<wgt id='1803'> +7.2541314e+04 </wgt>
<wgt id='1804'> +7.2498270e+04 </wgt>
<wgt id='1805'> +7.2472543e+04 </wgt>
<wgt id='1806'> +7.2391927e+04 </wgt>
<wgt id='1807'> +7.2438188e+04 </wgt>
<wgt id='1808'> +7.2473177e+04 </wgt>
<wgt id='1809'> +7.2470393e+04 </wgt>
<wgt id='1810'> +7.2380322e+04 </wgt>
<wgt id='1811'> +7.2403993e+04 </wgt>
<wgt id='1812'> +7.2419872e+04 </wgt>
<wgt id='1813'> +7.2304400e+04 </wgt>
<wgt id='1814'> +7.2576081e+04 </wgt>
<wgt id='1815'> +7.2322115e+04 </wgt>
<wgt id='1816'> +7.2454732e+04 </wgt>
<wgt id='1817'> +7.2395033e+04 </wgt>
<wgt id='1818'> +7.2412209e+04 </wgt>
<wgt id='1819'> +7.2284502e+04 </wgt>
<wgt id='1820'> +7.2461909e+04 </wgt>
<wgt id='1821'> +7.2445027e+04 </wgt>
<wgt id='1822'> +7.2274980e+04 </wgt>
<wgt id='1823'> +7.2440019e+04 </wgt>
<wgt id='1824'> +7.2415664e+04 </wgt>
<wgt id='1825'> +7.2347927e+04 </wgt>
<wgt id='1826'> +7.2742152e+04 </wgt>
<wgt id='1827'> +8.0656833e+04 </wgt>
<wgt id='1828'> +8.0832806e+04 </wgt>
<wgt id='1829'> +8.0503842e+04 </wgt>
<wgt id='1830'> +8.0634808e+04 </wgt>
<wgt id='1831'> +8.0700866e+04 </wgt>
<wgt id='1832'> +8.0768848e+04 </wgt>
<wgt id='1833'> +8.0566653e+04 </wgt>
<wgt id='1834'> +8.0367662e+04 </wgt>
<wgt id='1835'> +8.0952916e+04 </wgt>
<wgt id='1836'> +8.0904211e+04 </wgt>
<wgt id='1837'> +8.0424322e+04 </wgt>
<wgt id='1838'> +8.0676428e+04 </wgt>
<wgt id='1839'> +8.0658154e+04 </wgt>
<wgt id='1840'> +8.0451697e+04 </wgt>
<wgt id='1841'> +8.0887987e+04 </wgt>
<wgt id='1842'> +8.0645842e+04 </wgt>
<wgt id='1843'> +8.0813420e+04 </wgt>
<wgt id='1844'> +8.0626189e+04 </wgt>
<wgt id='1845'> +8.0691262e+04 </wgt>
<wgt id='1846'> +8.0741117e+04 </wgt>
<wgt id='1847'> +8.0586888e+04 </wgt>
<wgt id='1848'> +8.0078265e+04 </wgt>
<wgt id='1849'> +8.1159059e+04 </wgt>
<wgt id='1850'> +8.0674271e+04 </wgt>
<wgt id='1851'> +8.0673671e+04 </wgt>
<wgt id='1852'> +8.0455729e+04 </wgt>
<wgt id='1853'> +8.0717156e+04 </wgt>
<wgt id='1854'> +8.0553533e+04 </wgt>
<wgt id='1855'> +8.0744461e+04 </wgt>
<wgt id='1856'> +7.0617047e+04 </wgt>
<wgt id='1857'> +7.0607331e+04 </wgt>
<wgt id='1858'> +7.0595152e+04 </wgt>
<wgt id='1859'> +7.0644722e+04 </wgt>
<wgt id='1860'> +7.0618904e+04 </wgt>
<wgt id='1861'> +7.0706032e+04 </wgt>
<wgt id='1862'> +7.0322089e+04 </wgt>
<wgt id='1863'> +7.0668929e+04 </wgt>
<wgt id='1864'> +7.0511808e+04 </wgt>
<wgt id='1865'> +7.0483047e+04 </wgt>
<wgt id='1866'> +7.0800025e+04 </wgt>
<wgt id='1867'> +7.0585985e+04 </wgt>
<wgt id='1868'> +7.0556763e+04 </wgt>
<wgt id='1869'> +7.0697485e+04 </wgt>
<wgt id='1870'> +7.0528491e+04 </wgt>
<wgt id='1871'> +7.0714205e+04 </wgt>
<wgt id='1872'> +7.0584230e+04 </wgt>
<wgt id='1873'> +7.0622592e+04 </wgt>
<wgt id='1874'> +7.0696910e+04 </wgt>
<wgt id='1875'> +7.0678776e+04 </wgt>
<wgt id='1876'> +7.0395302e+04 </wgt>
<wgt id='1877'> +7.0500322e+04 </wgt>
<wgt id='1878'> +7.0490115e+04 </wgt>
<wgt id='1879'> +7.0703125e+04 </wgt>
<wgt id='1880'> +7.0739966e+04 </wgt>
<wgt id='1881'> +7.0814180e+04 </wgt>
<wgt id='1882'> +7.0585578e+04 </wgt>
<wgt id='1883'> +7.0697846e+04 </wgt>
<wgt id='1884'> +7.0476440e+04 </wgt>
<wgt id='1885'> +7.0226241e+04 </wgt>
<wgt id='1886'> +7.5633332e+04 </wgt>
<wgt id='1887'> +7.2848186e+04 </wgt>
<wgt id='1888'> +6.4701541e+04 </wgt>
<wgt id='1889'> +6.8530692e+04 </wgt>
</rwgt>
</event>
<event npLO=" -1 " npNLO=" 0 ">
 5      0 +7.4519530e+04 1.69226700e+01 7.55820760e-03 1.20328290e-01
        2 -1    0    0  501    0 +0.0000000000e+00 +0.0000000000e+00 +1.8701354765e+03 1.8701354765e+03 0.0000000000e+00 0.0000e+00 -1.0000e+00
       -1 -1    0    0    0  501 +0.0000000000e+00 +0.0000000000e+00 -8.5590634413e-01 8.5590634413e-01 0.0000000000e+00 0.0000e+00 1.0000e+00
       24  2    1    2    0    0 +0.0000000000e+00 +0.0000000000e+00 +1.8692795702e+03 1.8709913829e+03 8.0016518763e+01 0.0000e+00 0.0000e+00
      -15  1    3    3    0    0 -2.9446800985e+00 +5.9381319608e+00 +1.3000262280e+01 1.4700241508e+01 1.7770000000e+00 0.0000e+00 1.0000e+00
       16  1    3    3    0    0 +2.9446800985e+00 -5.9381319608e+00 +1.8562793079e+03 1.8562911413e+03 0.0000000000e+00 0.0000e+00 -1.0000e+00
#aMCatNLO 1  0  0  2  1 0.86717233E+01 0.00000000E+00 -9  5  0 0.00000000E+00 0.00000000E+00 0.00000000E+00 0.00000000E+00 0.00000000E+00
<rwgt>
<wgt id='1001'> +7.4519530e+04 </wgt>
<wgt id='1002'> +7.1809333e+04 </wgt>
<wgt id='1003'> +7.7896109e+04 </wgt>
<wgt id='1004'> +8.0678360e+04 </wgt>
<wgt id='1005'> +7.7755654e+04 </wgt>
<wgt id='1006'> +8.4319697e+04 </wgt>
<wgt id='1007'> +6.7163473e+04 </wgt>
<wgt id='1008'> +6.4727810e+04 </wgt>
<wgt id='1009'> +7.0198023e+04 </wgt>
<wgt id='1010'> +7.4519530e+04 </wgt>
<wgt id='1011'> +7.4456306e+04 </wgt>
<wgt id='1012'> +7.5008662e+04 </wgt>
<wgt id='1013'> +7.3706379e+04 </wgt>
<wgt id='1014'> +7.4148052e+04 </wgt>
<wgt id='1015'> +7.4293074e+04 </wgt>
<wgt id='1016'> +7.4457374e+04 </wgt>
<wgt id='1017'> +7.4379936e+04 </wgt>
<wgt id='1018'> +7.4475061e+04 </wgt>
<wgt id='1019'> +7.4053907e+04 </wgt>
<wgt id='1020'> +7.4420525e+04 </wgt>
<wgt id='1021'> +7.4608950e+04 </wgt>
<wgt id='1022'> +7.4322751e+04 </wgt>
<wgt id='1023'> +7.4575167e+04 </wgt>
<wgt id='1024'> +7.4395599e+04 </wgt>
<wgt id='1025'> +7.4407463e+04 </wgt>
<wgt id='1026'> +7.4420571e+04 </wgt>
<wgt id='1027'> +7.4451628e+04 </wgt>
<wgt id='1028'> +7.4580368e+04 </wgt>
<wgt id='1029'> +7.4714309e+04 </wgt>
<wgt id='1030'> +7.4767347e+04 </wgt>
<wgt id='1031'> +7.4712184e+04 </wgt>
<wgt id='1032'> +7.4513093e+04 </wgt>
<wgt id='1033'> +7.4429054e+04 </wgt>
<wgt id='1034'> +7.4727480e+04 </wgt>
<wgt id='1035'> +7.4563736e+04 </wgt>
<wgt id='1036'> +7.4557273e+04 </wgt>
<wgt id='1037'> +7.4322340e+04 </wgt>
<wgt id='1038'> +7.4707595e+04 </wgt>
<wgt id='1039'> +7.4899829e+04 </wgt>
<wgt id='1040'> +7.4329722e+04 </wgt>
<wgt id='1041'> +7.5034506e+04 </wgt>
<wgt id='1042'> +7.4817880e+04 </wgt>
<wgt id='1043'> +7.4583780e+04 </wgt>
<wgt id='1044'> +7.4701387e+04 </wgt>
<wgt id='1045'> +7.4395335e+04 </wgt>
<wgt id='1046'> +7.4223043e+04 </wgt>
<wgt id='1047'> +7.4642360e+04 </wgt>
<wgt id='1048'> +7.4428651e+04 </wgt>
<wgt id='1049'> +7.4558988e+04 </wgt>
<wgt id='1050'> +7.4480178e+04 </wgt>
<wgt id='1051'> +7.4448628e+04 </wgt>
<wgt id='1052'> +7.4438875e+04 </wgt>
<wgt id='1053'> +7.4391272e+04 </wgt>
<wgt id='1054'> +7.4416812e+04 </wgt>
<wgt id='1055'> +7.4508135e+04 </wgt>
<wgt id='1056'> +7.4640799e+04 </wgt>
<wgt id='1057'> +7.4363618e+04 </wgt>
<wgt id='1058'> +7.4469487e+04 </wgt>
<wgt id='1059'> +7.4521187e+04 </wgt>
<wgt id='1060'> +7.4528922e+04 </wgt>
<wgt id='1061'> +7.4551741e+04 </wgt>
<wgt id='1062'> +7.4530028e+04 </wgt>
<wgt id='1063'> +7.4480972e+04 </wgt>
<wgt id='1064'> +7.4457092e+04 </wgt>
<wgt id='1065'> +7.4621355e+04 </wgt>
<wgt id='1066'> +7.4552076e+04 </wgt>
<wgt id='1067'> +7.4503509e+04 </wgt>
<wgt id='1068'> +7.4567752e+04 </wgt>
<wgt id='1069'> +7.4388071e+04 </wgt>
<wgt id='1070'> +7.4524576e+04 </wgt>
<wgt id='1071'> +7.4628698e+04 </wgt>
<wgt id='1072'> +7.4506491e+04 </wgt>
<wgt id='1073'> +7.4440041e+04 </wgt>
<wgt id='1074'> +7.4588193e+04 </wgt>
<wgt id='1075'> +7.4386545e+04 </wgt>
<wgt id='1076'> +7.4342698e+04 </wgt>
<wgt id='1077'> +7.4590739e+04 </wgt>
<wgt id='1078'> +7.4555960e+04 </wgt>
<wgt id='1079'> +7.4607812e+04 </wgt>
<wgt id='1080'> +7.4546418e+04 </wgt>
<wgt id='1081'> +7.4623633e+04 </wgt>
<wgt id='1082'> +7.4475979e+04 </wgt>
<wgt id='1083'> +7.4590242e+04 </wgt>
<wgt id='1084'> +7.4593838e+04 </wgt>
<wgt id='1085'> +7.4557187e+04 </wgt>
<wgt id='1086'> +7.4473013e+04 </wgt>
<wgt id='1087'> +7.4486512e+04 </wgt>
<wgt id='1088'> +7.4534389e+04 </wgt>
<wgt id='1089'> +7.4480426e+04 </wgt>
<wgt id='1090'> +7.4529021e+04 </wgt>
<wgt id='1091'> +7.4461999e+04 </wgt>
<wgt id='1092'> +7.4537475e+04 </wgt>
<wgt id='1093'> +7.4527771e+04 </wgt>
<wgt id='1094'> +7.4530030e+04 </wgt>
<wgt id='1095'> +7.4540339e+04 </wgt>
<wgt id='1096'> +7.4486654e+04 </wgt>
<wgt id='1097'> +7.4531359e+04 </wgt>
<wgt id='1098'> +7.4570644e+04 </wgt>
<wgt id='1099'> +7.4504401e+04 </wgt>
<wgt id='1100'> +7.4562216e+04 </wgt>
<wgt id='1101'> +7.4537837e+04 </wgt>
<wgt id='1102'> +7.4577244e+04 </wgt>
<wgt id='1103'> +7.4496151e+04 </wgt>
<wgt id='1104'> +7.4533870e+04 </wgt>
<wgt id='1105'> +7.4541122e+04 </wgt>
<wgt id='1106'> +7.4510255e+04 </wgt>
<wgt id='1107'> +7.4511375e+04 </wgt>
<wgt id='1108'> +7.4531867e+04 </wgt>
<wgt id='1109'> +7.4535800e+04 </wgt>
<wgt id='1110'> +7.4519527e+04 </wgt>
<wgt id='1111'> +7.3713274e+04 </wgt>
<wgt id='1112'> +7.5131429e+04 </wgt>
<wgt id='1113'> +7.4519527e+04 </wgt>
<wgt id='1114'> +7.3101821e+04 </wgt>
<wgt id='1115'> +7.6199599e+04 </wgt>
<wgt id='1116'> +7.2202094e+04 </wgt>
<wgt id='1117'> +7.4483845e+04 </wgt>
<wgt id='1118'> +7.3491640e+04 </wgt>
<wgt id='1119'> +7.3941824e+04 </wgt>
<wgt id='1120'> +7.6543508e+04 </wgt>
<wgt id='1121'> +7.5490508e+04 </wgt>
<wgt id='1122'> +7.4301680e+04 </wgt>
<wgt id='1123'> +7.0343281e+04 </wgt>
<wgt id='1124'> +7.3128380e+04 </wgt>
<wgt id='1125'> +7.4331258e+04 </wgt>
<wgt id='1126'> +7.3943982e+04 </wgt>
<wgt id='1127'> +7.4113254e+04 </wgt>
<wgt id='1128'> +7.6178313e+04 </wgt>
<wgt id='1129'> +7.3674137e+04 </wgt>
<wgt id='1130'> +7.3673964e+04 </wgt>
<wgt id='1131'> +7.4386528e+04 </wgt>
<wgt id='1132'> +7.5564280e+04 </wgt>
<wgt id='1133'> +7.5300487e+04 </wgt>
<wgt id='1134'> +7.7310543e+04 </wgt>
<wgt id='1135'> +7.7544484e+04 </wgt>
<wgt id='1136'> +7.7944627e+04 </wgt>
<wgt id='1137'> +7.3944046e+04 </wgt>
<wgt id='1138'> +7.5804225e+04 </wgt>
<wgt id='1139'> +7.2634606e+04 </wgt>
<wgt id='1140'> +7.5346862e+04 </wgt>
<wgt id='1141'> +7.5166136e+04 </wgt>
<wgt id='1142'> +7.4050575e+04 </wgt>
<wgt id='1143'> +7.4422811e+04 </wgt>
<wgt id='1144'> +7.4636977e+04 </wgt>
<wgt id='1145'> +7.4092807e+04 </wgt>
<wgt id='1146'> +7.5785480e+04 </wgt>
<wgt id='1147'> +7.4272314e+04 </wgt>
<wgt id='1148'> +7.3521552e+04 </wgt>
<wgt id='1149'> +7.4999215e+04 </wgt>
<wgt id='1150'> +7.2607658e+04 </wgt>
<wgt id='1151'> +7.4873725e+04 </wgt>
<wgt id='1152'> +7.5668366e+04 </wgt>
<wgt id='1153'> +7.6533871e+04 </wgt>
<wgt id='1154'> +7.3640255e+04 </wgt>
<wgt id='1155'> +7.3943299e+04 </wgt>
<wgt id='1156'> +7.3973682e+04 </wgt>
<wgt id='1157'> +7.5539984e+04 </wgt>
<wgt id='1158'> +7.2813881e+04 </wgt>
<wgt id='1159'> +7.3553289e+04 </wgt>
<wgt id='1160'> +7.5856772e+04 </wgt>
<wgt id='1161'> +7.2386243e+04 </wgt>
<wgt id='1162'> +7.6877626e+04 </wgt>
<wgt id='1163'> +7.3929589e+04 </wgt>
<wgt id='1164'> +7.4316454e+04 </wgt>
<wgt id='1165'> +7.6541582e+04 </wgt>
<wgt id='1166'> +7.4883667e+04 </wgt>
<wgt id='1167'> +7.7358733e+04 </wgt>
<wgt id='1168'> +7.4052814e+04 </wgt>
<wgt id='1169'> +7.2305953e+04 </wgt>
<wgt id='1170'> +7.3582565e+04 </wgt>
<wgt id='1171'> +7.4370759e+04 </wgt>
<wgt id='1172'> +7.3784711e+04 </wgt>
<wgt id='1173'> +7.3402728e+04 </wgt>
<wgt id='1174'> +7.6377765e+04 </wgt>
<wgt id='1175'> +7.4094166e+04 </wgt>
<wgt id='1176'> +7.5234402e+04 </wgt>
<wgt id='1177'> +7.2995903e+04 </wgt>
<wgt id='1178'> +7.5921608e+04 </wgt>
<wgt id='1179'> +7.1400461e+04 </wgt>
<wgt id='1180'> +7.5728271e+04 </wgt>
<wgt id='1181'> +7.4812498e+04 </wgt>
<wgt id='1182'> +7.5681988e+04 </wgt>
<wgt id='1183'> +7.8017202e+04 </wgt>
<wgt id='1184'> +7.4985326e+04 </wgt>
<wgt id='1185'> +7.1643812e+04 </wgt>
<wgt id='1186'> +7.3222437e+04 </wgt>
<wgt id='1187'> +7.5683539e+04 </wgt>
<wgt id='1188'> +7.1774787e+04 </wgt>
<wgt id='1189'> +7.3798426e+04 </wgt>
<wgt id='1190'> +7.5774976e+04 </wgt>
<wgt id='1191'> +7.6807298e+04 </wgt>
<wgt id='1192'> +7.1683592e+04 </wgt>
<wgt id='1193'> +7.1250043e+04 </wgt>
<wgt id='1194'> +7.5401404e+04 </wgt>
<wgt id='1195'> +7.3674137e+04 </wgt>
<wgt id='1196'> +7.4459504e+04 </wgt>
<wgt id='1197'> +7.4446829e+04 </wgt>
<wgt id='1198'> +7.6717141e+04 </wgt>
<wgt id='1199'> +7.4225372e+04 </wgt>
<wgt id='1200'> +7.5481124e+04 </wgt>
<wgt id='1201'> +7.4945081e+04 </wgt>
<wgt id='1202'> +7.2588178e+04 </wgt>
<wgt id='1203'> +7.4588165e+04 </wgt>
<wgt id='1204'> +7.6597145e+04 </wgt>
<wgt id='1205'> +7.6358392e+04 </wgt>
<wgt id='1206'> +7.4828029e+04 </wgt>
<wgt id='1207'> +7.5486507e+04 </wgt>
<wgt id='1208'> +7.3833502e+04 </wgt>
<wgt id='1209'> +7.7132165e+04 </wgt>
<wgt id='1210'> +6.9432547e+04 </wgt>
<wgt id='1211'> +7.3623164e+04 </wgt>
<wgt id='1212'> +7.3463696e+04 </wgt>
<wgt id='1213'> +7.4622832e+04 </wgt>
<wgt id='1214'> +7.4466820e+04 </wgt>
<wgt id='1215'> +7.0479584e+04 </wgt>
<wgt id='1216'> +7.1023041e+04 </wgt>
<wgt id='1217'> +7.2089030e+04 </wgt>
<wgt id='1218'> +7.3077914e+04 </wgt>
<wgt id='1219'> +7.4294204e+04 </wgt>
<wgt id='1220'> +7.4672763e+04 </wgt>
<wgt id='1221'> +7.6242895e+04 </wgt>
<wgt id='1222'> +7.6715298e+04 </wgt>
<wgt id='1223'> +7.3424874e+04 </wgt>
<wgt id='1224'> +7.2740604e+04 </wgt>
<wgt id='1225'> +7.4277671e+04 </wgt>
<wgt id='1226'> +7.3008650e+04 </wgt>
<wgt id='1227'> +7.3370441e+04 </wgt>
<wgt id='1228'> +7.3452799e+04 </wgt>
<wgt id='1229'> +7.3102634e+04 </wgt>
<wgt id='1230'> +7.3681776e+04 </wgt>
<wgt id='1231'> +7.3898196e+04 </wgt>
<wgt id='1232'> +7.3586974e+04 </wgt>
<wgt id='1233'> +7.3517596e+04 </wgt>
<wgt id='1234'> +7.3416397e+04 </wgt>
<wgt id='1235'> +7.3500024e+04 </wgt>
<wgt id='1236'> +7.3549890e+04 </wgt>
<wgt id='1237'> +7.3250641e+04 </wgt>
<wgt id='1238'> +7.3644310e+04 </wgt>
<wgt id='1239'> +7.3565369e+04 </wgt>
<wgt id='1240'> +7.3457047e+04 </wgt>
<wgt id='1241'> +7.3470534e+04 </wgt>
<wgt id='1242'> +7.3391754e+04 </wgt>
<wgt id='1243'> +7.3288981e+04 </wgt>
<wgt id='1244'> +7.3473420e+04 </wgt>
<wgt id='1245'> +7.3534524e+04 </wgt>
<wgt id='1246'> +7.3590184e+04 </wgt>
<wgt id='1247'> +7.3471626e+04 </wgt>
<wgt id='1248'> +7.3239515e+04 </wgt>
<wgt id='1249'> +7.3424773e+04 </wgt>
<wgt id='1250'> +7.3323110e+04 </wgt>
<wgt id='1251'> +7.3623140e+04 </wgt>
<wgt id='1252'> +7.3632993e+04 </wgt>
<wgt id='1253'> +7.2743982e+04 </wgt>
<wgt id='1254'> +7.3106118e+04 </wgt>
<wgt id='1255'> +7.3552631e+04 </wgt>
<wgt id='1256'> +7.3503607e+04 </wgt>
<wgt id='1257'> +7.3403109e+04 </wgt>
<wgt id='1258'> +7.3550817e+04 </wgt>
<wgt id='1259'> +7.3500696e+04 </wgt>
<wgt id='1260'> +7.3241759e+04 </wgt>
<wgt id='1261'> +7.3462618e+04 </wgt>
<wgt id='1262'> +7.3419734e+04 </wgt>
<wgt id='1263'> +7.3405568e+04 </wgt>
<wgt id='1264'> +7.3481070e+04 </wgt>
<wgt id='1265'> +7.3571783e+04 </wgt>
<wgt id='1266'> +7.3289672e+04 </wgt>
<wgt id='1267'> +7.3491328e+04 </wgt>
<wgt id='1268'> +7.3517337e+04 </wgt>
<wgt id='1269'> +7.3270873e+04 </wgt>
<wgt id='1270'> +7.3331479e+04 </wgt>
<wgt id='1271'> +7.3492227e+04 </wgt>
<wgt id='1272'> +7.3437214e+04 </wgt>
<wgt id='1273'> +7.3371904e+04 </wgt>
<wgt id='1274'> +7.3620353e+04 </wgt>
<wgt id='1275'> +7.3561783e+04 </wgt>
<wgt id='1276'> +7.3467003e+04 </wgt>
<wgt id='1277'> +7.3508705e+04 </wgt>
<wgt id='1278'> +7.3247516e+04 </wgt>
<wgt id='1279'> +7.3570105e+04 </wgt>
<wgt id='1280'> +7.3401211e+04 </wgt>
<wgt id='1281'> +7.3501099e+04 </wgt>
<wgt id='1282'> +7.3492348e+04 </wgt>
<wgt id='1283'> +7.3401636e+04 </wgt>
<wgt id='1284'> +7.3360436e+04 </wgt>
<wgt id='1285'> +7.3365911e+04 </wgt>
<wgt id='1286'> +7.3375402e+04 </wgt>
<wgt id='1287'> +7.3330809e+04 </wgt>
<wgt id='1288'> +7.3436624e+04 </wgt>
<wgt id='1289'> +7.3401458e+04 </wgt>
<wgt id='1290'> +7.3449163e+04 </wgt>
<wgt id='1291'> +7.3470281e+04 </wgt>
<wgt id='1292'> +7.3376831e+04 </wgt>
<wgt id='1293'> +7.3285688e+04 </wgt>
<wgt id='1294'> +7.3347364e+04 </wgt>
<wgt id='1295'> +7.3366319e+04 </wgt>
<wgt id='1296'> +7.3325127e+04 </wgt>
<wgt id='1297'> +7.3364355e+04 </wgt>
<wgt id='1298'> +7.3497916e+04 </wgt>
<wgt id='1299'> +7.3354710e+04 </wgt>
<wgt id='1300'> +7.3440584e+04 </wgt>
<wgt id='1301'> +7.3481679e+04 </wgt>
<wgt id='1302'> +7.3367892e+04 </wgt>
<wgt id='1303'> +7.3295047e+04 </wgt>
<wgt id='1304'> +7.3298164e+04 </wgt>
<wgt id='1305'> +7.3468178e+04 </wgt>
<wgt id='1306'> +7.3388620e+04 </wgt>
<wgt id='1307'> +7.3483984e+04 </wgt>
<wgt id='1308'> +7.3479831e+04 </wgt>
<wgt id='1309'> +7.3364562e+04 </wgt>
<wgt id='1310'> +7.3448975e+04 </wgt>
<wgt id='1311'> +7.3399978e+04 </wgt>
<wgt id='1312'> +7.3425655e+04 </wgt>
<wgt id='1313'> +7.3379679e+04 </wgt>
<wgt id='1314'> +7.3363862e+04 </wgt>
<wgt id='1315'> +7.3413491e+04 </wgt>
<wgt id='1316'> +7.3443600e+04 </wgt>
<wgt id='1317'> +7.3538239e+04 </wgt>
<wgt id='1318'> +7.3374282e+04 </wgt>
<wgt id='1319'> +7.3439354e+04 </wgt>
<wgt id='1320'> +7.3441025e+04 </wgt>
<wgt id='1321'> +7.3439865e+04 </wgt>
<wgt id='1322'> +7.3427244e+04 </wgt>
<wgt id='1323'> +7.3434413e+04 </wgt>
<wgt id='1324'> +7.2364482e+04 </wgt>
<wgt id='1325'> +7.4198658e+04 </wgt>
<wgt id='1326'> +7.4714208e+04 </wgt>
<wgt id='1327'> +7.4255417e+04 </wgt>
<wgt id='1328'> +7.4373876e+04 </wgt>
<wgt id='1329'> +7.4350645e+04 </wgt>
<wgt id='1330'> +7.4481028e+04 </wgt>
<wgt id='1331'> +7.5203554e+04 </wgt>
<wgt id='1332'> +7.4736123e+04 </wgt>
<wgt id='1333'> +7.4881207e+04 </wgt>
<wgt id='1334'> +7.2759701e+04 </wgt>
<wgt id='1335'> +7.3108181e+04 </wgt>
<wgt id='1336'> +7.5106483e+04 </wgt>
<wgt id='1337'> +7.5103537e+04 </wgt>
<wgt id='1338'> +7.3756034e+04 </wgt>
<wgt id='1339'> +7.4575882e+04 </wgt>
<wgt id='1340'> +7.4762068e+04 </wgt>
<wgt id='1341'> +7.2808473e+04 </wgt>
<wgt id='1342'> +7.4611973e+04 </wgt>
<wgt id='1343'> +7.3783865e+04 </wgt>
<wgt id='1344'> +7.2073507e+04 </wgt>
<wgt id='1345'> +7.6238144e+04 </wgt>
<wgt id='1346'> +7.3701588e+04 </wgt>
<wgt id='1347'> +7.5209580e+04 </wgt>
<wgt id='1348'> +7.4418416e+04 </wgt>
<wgt id='1349'> +7.5059768e+04 </wgt>
<wgt id='1350'> +7.1981910e+04 </wgt>
<wgt id='1351'> +7.3988218e+04 </wgt>
<wgt id='1352'> +7.4415425e+04 </wgt>
<wgt id='1353'> +7.4628851e+04 </wgt>
<wgt id='1354'> +7.5296942e+04 </wgt>
<wgt id='1355'> +7.4955993e+04 </wgt>
<wgt id='1356'> +7.4960277e+04 </wgt>
<wgt id='1357'> +7.3791555e+04 </wgt>
<wgt id='1358'> +7.3854689e+04 </wgt>
<wgt id='1359'> +7.4446959e+04 </wgt>
<wgt id='1360'> +7.3004585e+04 </wgt>
<wgt id='1361'> +7.6033997e+04 </wgt>
<wgt id='1362'> +7.4643459e+04 </wgt>
<wgt id='1363'> +7.5269991e+04 </wgt>
<wgt id='1364'> +7.4579082e+04 </wgt>
<wgt id='1365'> +7.3125511e+04 </wgt>
<wgt id='1366'> +7.3682361e+04 </wgt>
<wgt id='1367'> +7.4355946e+04 </wgt>
<wgt id='1368'> +7.5230255e+04 </wgt>
<wgt id='1369'> +7.3443656e+04 </wgt>
<wgt id='1370'> +7.4158018e+04 </wgt>
<wgt id='1371'> +7.4238712e+04 </wgt>
<wgt id='1372'> +7.3810722e+04 </wgt>
<wgt id='1373'> +7.3845901e+04 </wgt>
<wgt id='1374'> +7.5794086e+04 </wgt>
<wgt id='1375'> +7.5608429e+04 </wgt>
<wgt id='1376'> +7.5442941e+04 </wgt>
<wgt id='1377'> +7.3792909e+04 </wgt>
<wgt id='1378'> +7.3308222e+04 </wgt>
<wgt id='1379'> +7.6066164e+04 </wgt>
<wgt id='1380'> +7.2562627e+04 </wgt>
<wgt id='1381'> +7.4696576e+04 </wgt>
<wgt id='1382'> +7.3229886e+04 </wgt>
<wgt id='1383'> +7.4789607e+04 </wgt>
<wgt id='1384'> +7.4253126e+04 </wgt>
<wgt id='1385'> +7.3252726e+04 </wgt>
<wgt id='1386'> +7.5009232e+04 </wgt>
<wgt id='1387'> +7.4391118e+04 </wgt>
<wgt id='1388'> +7.5948229e+04 </wgt>
<wgt id='1389'> +7.3452187e+04 </wgt>
<wgt id='1390'> +7.2648059e+04 </wgt>
<wgt id='1391'> +7.4307005e+04 </wgt>
<wgt id='1392'> +7.4000455e+04 </wgt>
<wgt id='1393'> +7.3043804e+04 </wgt>
<wgt id='1394'> +7.3125511e+04 </wgt>
<wgt id='1395'> +7.4085168e+04 </wgt>
<wgt id='1396'> +7.2796107e+04 </wgt>
<wgt id='1397'> +7.5133788e+04 </wgt>
<wgt id='1398'> +7.4782803e+04 </wgt>
<wgt id='1399'> +7.4884449e+04 </wgt>
<wgt id='1400'> +7.6546443e+04 </wgt>
<wgt id='1401'> +7.5179931e+04 </wgt>
<wgt id='1402'> +7.4977135e+04 </wgt>
<wgt id='1403'> +7.2964676e+04 </wgt>
<wgt id='1404'> +7.6322830e+04 </wgt>
<wgt id='1405'> +7.2496443e+04 </wgt>
<wgt id='1406'> +7.4056661e+04 </wgt>
<wgt id='1407'> +7.4043934e+04 </wgt>
<wgt id='1408'> +7.6257663e+04 </wgt>
<wgt id='1409'> +7.3718617e+04 </wgt>
<wgt id='1410'> +7.4859005e+04 </wgt>
<wgt id='1411'> +7.4406024e+04 </wgt>
<wgt id='1412'> +7.6212207e+04 </wgt>
<wgt id='1413'> +7.4535647e+04 </wgt>
<wgt id='1414'> +7.4383602e+04 </wgt>
<wgt id='1415'> +7.3892803e+04 </wgt>
<wgt id='1416'> +7.5297385e+04 </wgt>
<wgt id='1417'> +7.4268094e+04 </wgt>
<wgt id='1418'> +7.5552886e+04 </wgt>
<wgt id='1419'> +7.6738702e+04 </wgt>
<wgt id='1420'> +7.4296589e+04 </wgt>
<wgt id='1421'> +7.4474148e+04 </wgt>
<wgt id='1422'> +7.4311067e+04 </wgt>
<wgt id='1423'> +7.3877752e+04 </wgt>
<wgt id='1424'> +7.4481052e+04 </wgt>
<wgt id='1425'> +7.2919630e+04 </wgt>
<wgt id='1426'> +7.4122985e+04 </wgt>
<wgt id='1427'> +7.4707529e+04 </wgt>
<wgt id='1428'> +7.4493657e+04 </wgt>
<wgt id='1429'> +7.4189464e+04 </wgt>
<wgt id='1430'> +7.4503190e+04 </wgt>
<wgt id='1431'> +7.4336704e+04 </wgt>
<wgt id='1432'> +7.5081649e+04 </wgt>
<wgt id='1433'> +7.4357460e+04 </wgt>
<wgt id='1434'> +7.4177417e+04 </wgt>
<wgt id='1435'> +7.4236181e+04 </wgt>
<wgt id='1436'> +7.4323912e+04 </wgt>
<wgt id='1437'> +7.4350142e+04 </wgt>
<wgt id='1438'> +7.4370042e+04 </wgt>
<wgt id='1439'> +7.4196799e+04 </wgt>
<wgt id='1440'> +7.4423010e+04 </wgt>
<wgt id='1441'> +7.4377421e+04 </wgt>
<wgt id='1442'> +7.4393127e+04 </wgt>
<wgt id='1443'> +7.4320455e+04 </wgt>
<wgt id='1444'> +7.4192953e+04 </wgt>
<wgt id='1445'> +7.4249755e+04 </wgt>
<wgt id='1446'> +7.4399674e+04 </wgt>
<wgt id='1447'> +7.4117528e+04 </wgt>
<wgt id='1448'> +7.4517135e+04 </wgt>
<wgt id='1449'> +7.4275228e+04 </wgt>
<wgt id='1450'> +7.3993850e+04 </wgt>
<wgt id='1451'> +7.4376235e+04 </wgt>
<wgt id='1452'> +7.4427258e+04 </wgt>
<wgt id='1453'> +7.4249455e+04 </wgt>
<wgt id='1454'> +7.4290460e+04 </wgt>
<wgt id='1455'> +7.4290965e+04 </wgt>
<wgt id='1456'> +7.4068341e+04 </wgt>
<wgt id='1457'> +7.4471912e+04 </wgt>
<wgt id='1458'> +7.4328887e+04 </wgt>
<wgt id='1459'> +7.4392330e+04 </wgt>
<wgt id='1460'> +7.4446636e+04 </wgt>
<wgt id='1461'> +7.4452143e+04 </wgt>
<wgt id='1462'> +7.4364073e+04 </wgt>
<wgt id='1463'> +7.4358193e+04 </wgt>
<wgt id='1464'> +7.4395891e+04 </wgt>
<wgt id='1465'> +7.4327652e+04 </wgt>
<wgt id='1466'> +7.4302945e+04 </wgt>
<wgt id='1467'> +7.4268687e+04 </wgt>
<wgt id='1468'> +7.4320041e+04 </wgt>
<wgt id='1469'> +7.4390427e+04 </wgt>
<wgt id='1470'> +7.4369104e+04 </wgt>
<wgt id='1471'> +7.4241795e+04 </wgt>
<wgt id='1472'> +7.4312040e+04 </wgt>
<wgt id='1473'> +7.4280387e+04 </wgt>
<wgt id='1474'> +7.4405538e+04 </wgt>
<wgt id='1475'> +7.4339131e+04 </wgt>
<wgt id='1476'> +7.4290403e+04 </wgt>
<wgt id='1477'> +7.4382503e+04 </wgt>
<wgt id='1478'> +7.4267943e+04 </wgt>
<wgt id='1479'> +7.4398774e+04 </wgt>
<wgt id='1480'> +7.4274414e+04 </wgt>
<wgt id='1481'> +7.4356792e+04 </wgt>
<wgt id='1482'> +7.4189464e+04 </wgt>
<wgt id='1483'> +7.4503190e+04 </wgt>
<wgt id='1484'> +7.8721809e+04 </wgt>
<wgt id='1485'> +7.8584990e+04 </wgt>
<wgt id='1486'> +7.9641977e+04 </wgt>
<wgt id='1487'> +7.6996822e+04 </wgt>
<wgt id='1488'> +7.7380631e+04 </wgt>
<wgt id='1489'> +7.8911280e+04 </wgt>
<wgt id='1490'> +7.6459765e+04 </wgt>
<wgt id='1491'> +7.9338612e+04 </wgt>
<wgt id='1492'> +7.6020630e+04 </wgt>
<wgt id='1493'> +7.9292713e+04 </wgt>
<wgt id='1494'> +7.8312851e+04 </wgt>
<wgt id='1495'> +7.6845998e+04 </wgt>
<wgt id='1496'> +7.8016578e+04 </wgt>
<wgt id='1497'> +7.8755726e+04 </wgt>
<wgt id='1498'> +7.9862189e+04 </wgt>
<wgt id='1499'> +7.9368727e+04 </wgt>
<wgt id='1500'> +7.7855756e+04 </wgt>
<wgt id='1501'> +7.8168782e+04 </wgt>
<wgt id='1502'> +7.9252018e+04 </wgt>
<wgt id='1503'> +7.8103603e+04 </wgt>
<wgt id='1504'> +7.8844023e+04 </wgt>
<wgt id='1505'> +7.9252039e+04 </wgt>
<wgt id='1506'> +7.9276411e+04 </wgt>
<wgt id='1507'> +7.7885380e+04 </wgt>
<wgt id='1508'> +7.5705965e+04 </wgt>
<wgt id='1509'> +7.8060308e+04 </wgt>
<wgt id='1510'> +7.9878214e+04 </wgt>
<wgt id='1511'> +7.8972517e+04 </wgt>
<wgt id='1512'> +7.8068566e+04 </wgt>
<wgt id='1513'> +7.8979141e+04 </wgt>
<wgt id='1514'> +7.8333160e+04 </wgt>
<wgt id='1515'> +7.8352278e+04 </wgt>
<wgt id='1516'> +7.6840568e+04 </wgt>
<wgt id='1517'> +7.9400602e+04 </wgt>
<wgt id='1518'> +7.8296288e+04 </wgt>
<wgt id='1519'> +7.8372537e+04 </wgt>
<wgt id='1520'> +7.9307759e+04 </wgt>
<wgt id='1521'> +7.6564554e+04 </wgt>
<wgt id='1522'> +7.9356895e+04 </wgt>
<wgt id='1523'> +7.9263140e+04 </wgt>
<wgt id='1524'> +7.8215282e+04 </wgt>
<wgt id='1525'> +7.8865368e+04 </wgt>
<wgt id='1526'> +7.9153882e+04 </wgt>
<wgt id='1527'> +7.8855169e+04 </wgt>
<wgt id='1528'> +7.9816516e+04 </wgt>
<wgt id='1529'> +7.9765199e+04 </wgt>
<wgt id='1530'> +7.9287557e+04 </wgt>
<wgt id='1531'> +7.8612187e+04 </wgt>
<wgt id='1532'> +7.6627955e+04 </wgt>
<wgt id='1533'> +7.9301160e+04 </wgt>
<wgt id='1534'> +7.9479487e+04 </wgt>
<wgt id='1535'> +7.7770026e+04 </wgt>
<wgt id='1536'> +7.9552860e+04 </wgt>
<wgt id='1537'> +7.8581894e+04 </wgt>
<wgt id='1538'> +8.0230689e+04 </wgt>
<wgt id='1539'> +7.8848912e+04 </wgt>
<wgt id='1540'> +8.0198674e+04 </wgt>
<wgt id='1541'> +8.0148515e+04 </wgt>
<wgt id='1542'> +7.9304501e+04 </wgt>
<wgt id='1543'> +7.9609829e+04 </wgt>
<wgt id='1544'> +8.0354312e+04 </wgt>
<wgt id='1545'> +7.8857967e+04 </wgt>
<wgt id='1546'> +7.9350366e+04 </wgt>
<wgt id='1547'> +7.9801603e+04 </wgt>
<wgt id='1548'> +7.8059946e+04 </wgt>
<wgt id='1549'> +8.0016532e+04 </wgt>
<wgt id='1550'> +7.9852874e+04 </wgt>
<wgt id='1551'> +8.0830169e+04 </wgt>
<wgt id='1552'> +7.8798565e+04 </wgt>
<wgt id='1553'> +8.0859241e+04 </wgt>
<wgt id='1554'> +7.7695440e+04 </wgt>
<wgt id='1555'> +7.8573878e+04 </wgt>
<wgt id='1556'> +7.8588018e+04 </wgt>
<wgt id='1557'> +7.7781431e+04 </wgt>
<wgt id='1558'> +7.9528992e+04 </wgt>
<wgt id='1559'> +7.9526653e+04 </wgt>
<wgt id='1560'> +7.8184161e+04 </wgt>
<wgt id='1561'> +7.9588167e+04 </wgt>
<wgt id='1562'> +7.8877934e+04 </wgt>
<wgt id='1563'> +7.8348614e+04 </wgt>
<wgt id='1564'> +7.8000247e+04 </wgt>
<wgt id='1565'> +7.7511764e+04 </wgt>
<wgt id='1566'> +7.8815971e+04 </wgt>
<wgt id='1567'> +7.9828977e+04 </wgt>
<wgt id='1568'> +7.8957108e+04 </wgt>
<wgt id='1569'> +7.9665805e+04 </wgt>
<wgt id='1570'> +8.0231023e+04 </wgt>
<wgt id='1571'> +7.9612490e+04 </wgt>
<wgt id='1572'> +7.8169301e+04 </wgt>
<wgt id='1573'> +7.9773848e+04 </wgt>
<wgt id='1574'> +7.8306214e+04 </wgt>
<wgt id='1575'> +7.6004203e+04 </wgt>
<wgt id='1576'> +7.9982674e+04 </wgt>
<wgt id='1577'> +7.6287392e+04 </wgt>
<wgt id='1578'> +7.7726313e+04 </wgt>
<wgt id='1579'> +7.8337342e+04 </wgt>
<wgt id='1580'> +8.0303981e+04 </wgt>
<wgt id='1581'> +7.9435207e+04 </wgt>
<wgt id='1582'> +7.8032458e+04 </wgt>
<wgt id='1583'> +7.8249091e+04 </wgt>
<wgt id='1584'> +7.7103167e+04 </wgt>
<wgt id='1585'> +7.6714580e+04 </wgt>
<wgt id='1586'> +8.0217154e+04 </wgt>
<wgt id='1587'> +7.3670487e+04 </wgt>
<wgt id='1588'> +7.4189464e+04 </wgt>
<wgt id='1589'> +7.4212081e+04 </wgt>
<wgt id='1590'> +7.4254080e+04 </wgt>
<wgt id='1591'> +7.4503190e+04 </wgt>
<wgt id='1592'> +7.4706948e+04 </wgt>
<wgt id='1593'> +7.6634474e+04 </wgt>
<wgt id='1594'> +7.6632544e+04 </wgt>
<wgt id='1595'> +7.7207073e+04 </wgt>
<wgt id='1596'> +7.7120225e+04 </wgt>
<wgt id='1597'> +7.5807835e+04 </wgt>
<wgt id='1598'> +7.5801885e+04 </wgt>
<wgt id='1599'> +7.7345656e+04 </wgt>
<wgt id='1600'> +7.5827594e+04 </wgt>
<wgt id='1601'> +7.7378729e+04 </wgt>
<wgt id='1602'> +7.6532783e+04 </wgt>
<wgt id='1603'> +7.6922977e+04 </wgt>
<wgt id='1604'> +7.7037232e+04 </wgt>
<wgt id='1605'> +7.6431109e+04 </wgt>
<wgt id='1606'> +7.5807643e+04 </wgt>
<wgt id='1607'> +7.7078843e+04 </wgt>
<wgt id='1608'> +7.5884407e+04 </wgt>
<wgt id='1609'> +7.6863607e+04 </wgt>
<wgt id='1610'> +7.6353698e+04 </wgt>
<wgt id='1611'> +7.6787626e+04 </wgt>
<wgt id='1612'> +7.7098888e+04 </wgt>
<wgt id='1613'> +7.5657248e+04 </wgt>
<wgt id='1614'> +7.6290940e+04 </wgt>
<wgt id='1615'> +7.7246159e+04 </wgt>
<wgt id='1616'> +7.6279824e+04 </wgt>
<wgt id='1617'> +7.6478239e+04 </wgt>
<wgt id='1618'> +7.6699445e+04 </wgt>
<wgt id='1619'> +7.6438845e+04 </wgt>
<wgt id='1620'> +7.7164561e+04 </wgt>
<wgt id='1621'> +7.6282076e+04 </wgt>
<wgt id='1622'> +7.7530084e+04 </wgt>
<wgt id='1623'> +7.5915864e+04 </wgt>
<wgt id='1624'> +7.6900568e+04 </wgt>
<wgt id='1625'> +7.5311284e+04 </wgt>
<wgt id='1626'> +7.6003660e+04 </wgt>
<wgt id='1627'> +7.7210401e+04 </wgt>
<wgt id='1628'> +7.6121830e+04 </wgt>
<wgt id='1629'> +7.7478568e+04 </wgt>
<wgt id='1630'> +7.6142469e+04 </wgt>
<wgt id='1631'> +7.6818586e+04 </wgt>
<wgt id='1632'> +7.6133636e+04 </wgt>
<wgt id='1633'> +7.7282802e+04 </wgt>
<wgt id='1634'> +7.7510966e+04 </wgt>
<wgt id='1635'> +7.5989620e+04 </wgt>
<wgt id='1636'> +7.7394565e+04 </wgt>
<wgt id='1637'> +7.6946756e+04 </wgt>
<wgt id='1638'> +7.6536971e+04 </wgt>
<wgt id='1639'> +7.6664545e+04 </wgt>
<wgt id='1640'> +7.7285426e+04 </wgt>
<wgt id='1641'> +7.6122153e+04 </wgt>
<wgt id='1642'> +7.6658480e+04 </wgt>
<wgt id='1643'> +7.6786628e+04 </wgt>
<wgt id='1644'> +7.7158706e+04 </wgt>
<wgt id='1645'> +7.6100166e+04 </wgt>
<wgt id='1646'> +7.6531531e+04 </wgt>
<wgt id='1647'> +7.7519136e+04 </wgt>
<wgt id='1648'> +7.6962611e+04 </wgt>
<wgt id='1649'> +7.7138760e+04 </wgt>
<wgt id='1650'> +7.8673808e+04 </wgt>
<wgt id='1651'> +7.4819002e+04 </wgt>
<wgt id='1652'> +7.6625066e+04 </wgt>
<wgt id='1653'> +7.6632849e+04 </wgt>
<wgt id='1654'> +7.6632406e+04 </wgt>
<wgt id='1655'> +7.6634378e+04 </wgt>
<wgt id='1656'> +7.8034440e+04 </wgt>
<wgt id='1657'> +7.8476447e+04 </wgt>
<wgt id='1658'> +7.7896213e+04 </wgt>
<wgt id='1659'> +7.8244381e+04 </wgt>
<wgt id='1660'> +7.7818303e+04 </wgt>
<wgt id='1661'> +7.8336303e+04 </wgt>
<wgt id='1662'> +7.7608598e+04 </wgt>
<wgt id='1663'> +7.8109848e+04 </wgt>
<wgt id='1664'> +7.7600865e+04 </wgt>
<wgt id='1665'> +7.7586329e+04 </wgt>
<wgt id='1666'> +7.8088532e+04 </wgt>
<wgt id='1667'> +7.7678948e+04 </wgt>
<wgt id='1668'> +7.8271947e+04 </wgt>
<wgt id='1669'> +7.8364034e+04 </wgt>
<wgt id='1670'> +7.7475612e+04 </wgt>
<wgt id='1671'> +7.7816029e+04 </wgt>
<wgt id='1672'> +7.8433357e+04 </wgt>
<wgt id='1673'> +7.8840998e+04 </wgt>
<wgt id='1674'> +7.7585085e+04 </wgt>
<wgt id='1675'> +7.8964044e+04 </wgt>
<wgt id='1676'> +7.7392704e+04 </wgt>
<wgt id='1677'> +7.8018814e+04 </wgt>
<wgt id='1678'> +7.8092244e+04 </wgt>
<wgt id='1679'> +7.7832863e+04 </wgt>
<wgt id='1680'> +7.9139843e+04 </wgt>
<wgt id='1681'> +7.7942325e+04 </wgt>
<wgt id='1682'> +7.7783274e+04 </wgt>
<wgt id='1683'> +7.7758734e+04 </wgt>
<wgt id='1684'> +7.8412499e+04 </wgt>
<wgt id='1685'> +7.9173277e+04 </wgt>
<wgt id='1686'> +7.7040857e+04 </wgt>
<wgt id='1687'> +7.8303913e+04 </wgt>
<wgt id='1688'> +7.7702274e+04 </wgt>
<wgt id='1689'> +7.7237648e+04 </wgt>
<wgt id='1690'> +7.9247292e+04 </wgt>
<wgt id='1691'> +7.7814265e+04 </wgt>
<wgt id='1692'> +7.8446744e+04 </wgt>
<wgt id='1693'> +7.8180582e+04 </wgt>
<wgt id='1694'> +7.8627425e+04 </wgt>
<wgt id='1695'> +7.7600201e+04 </wgt>
<wgt id='1696'> +7.9384313e+04 </wgt>
<wgt id='1697'> +7.8725257e+04 </wgt>
<wgt id='1698'> +7.7518776e+04 </wgt>
<wgt id='1699'> +7.8189424e+04 </wgt>
<wgt id='1700'> +7.7671521e+04 </wgt>
<wgt id='1701'> +7.7748821e+04 </wgt>
<wgt id='1702'> +7.8620099e+04 </wgt>
<wgt id='1703'> +7.7983520e+04 </wgt>
<wgt id='1704'> +7.8489097e+04 </wgt>
<wgt id='1705'> +7.7428170e+04 </wgt>
<wgt id='1706'> +7.8927032e+04 </wgt>
<wgt id='1707'> +7.6547042e+04 </wgt>
<wgt id='1708'> +7.9020234e+04 </wgt>
<wgt id='1709'> +7.7637742e+04 </wgt>
<wgt id='1710'> +7.8794407e+04 </wgt>
<wgt id='1711'> +7.8358498e+04 </wgt>
<wgt id='1712'> +7.7880193e+04 </wgt>
<wgt id='1713'> +8.0236959e+04 </wgt>
<wgt id='1714'> +7.6015987e+04 </wgt>
<wgt id='1715'> +7.5908853e+04 </wgt>
<wgt id='1716'> +7.7867327e+04 </wgt>
<wgt id='1717'> +7.3834809e+04 </wgt>
<wgt id='1718'> +7.3972293e+04 </wgt>
<wgt id='1719'> +7.3658519e+04 </wgt>
<wgt id='1720'> +7.3883097e+04 </wgt>
<wgt id='1721'> +7.3790698e+04 </wgt>
<wgt id='1722'> +7.3838928e+04 </wgt>
<wgt id='1723'> +7.3828065e+04 </wgt>
<wgt id='1724'> +7.4052490e+04 </wgt>
<wgt id='1725'> +7.3657758e+04 </wgt>
<wgt id='1726'> +7.3749455e+04 </wgt>
<wgt id='1727'> +7.3922907e+04 </wgt>
<wgt id='1728'> +7.3827805e+04 </wgt>
<wgt id='1729'> +7.3842942e+04 </wgt>
<wgt id='1730'> +7.3486915e+04 </wgt>
<wgt id='1731'> +7.4079127e+04 </wgt>
<wgt id='1732'> +7.4451984e+04 </wgt>
<wgt id='1733'> +7.4451984e+04 </wgt>
<wgt id='1734'> +7.3272061e+04 </wgt>
<wgt id='1735'> +7.4215088e+04 </wgt>
<wgt id='1736'> +7.3537150e+04 </wgt>
<wgt id='1737'> +7.4239664e+04 </wgt>
<wgt id='1738'> +7.3899934e+04 </wgt>
<wgt id='1739'> +7.3686593e+04 </wgt>
<wgt id='1740'> +7.3758999e+04 </wgt>
<wgt id='1741'> +7.4014914e+04 </wgt>
<wgt id='1742'> +7.3836462e+04 </wgt>
<wgt id='1743'> +7.3826130e+04 </wgt>
<wgt id='1744'> +7.3750747e+04 </wgt>
<wgt id='1745'> +7.4061737e+04 </wgt>
<wgt id='1746'> +7.3250867e+04 </wgt>
<wgt id='1747'> +7.4144137e+04 </wgt>
<wgt id='1748'> +7.4042586e+04 </wgt>
<wgt id='1749'> +7.3103492e+04 </wgt>
<wgt id='1750'> +7.3920871e+04 </wgt>
<wgt id='1751'> +7.3739716e+04 </wgt>
<wgt id='1752'> +7.3852554e+04 </wgt>
<wgt id='1753'> +7.3809696e+04 </wgt>
<wgt id='1754'> +7.3767858e+04 </wgt>
<wgt id='1755'> +7.3862541e+04 </wgt>
<wgt id='1756'> +7.3475065e+04 </wgt>
<wgt id='1757'> +7.4739431e+04 </wgt>
<wgt id='1758'> +7.3744738e+04 </wgt>
<wgt id='1759'> +7.3626250e+04 </wgt>
<wgt id='1760'> +7.3821630e+04 </wgt>
<wgt id='1761'> +7.3889220e+04 </wgt>
<wgt id='1762'> +7.3767231e+04 </wgt>
<wgt id='1763'> +7.4301061e+04 </wgt>
<wgt id='1764'> +7.3753494e+04 </wgt>
<wgt id='1765'> +7.4191133e+04 </wgt>
<wgt id='1766'> +7.3863668e+04 </wgt>
<wgt id='1767'> +7.3882206e+04 </wgt>
<wgt id='1768'> +7.3989994e+04 </wgt>
<wgt id='1769'> +7.3731239e+04 </wgt>
<wgt id='1770'> +7.3573547e+04 </wgt>
<wgt id='1771'> +7.4279454e+04 </wgt>
<wgt id='1772'> +7.3966063e+04 </wgt>
<wgt id='1773'> +7.3561419e+04 </wgt>
<wgt id='1774'> +7.3761164e+04 </wgt>
<wgt id='1775'> +7.3865136e+04 </wgt>
<wgt id='1776'> +7.3939130e+04 </wgt>
<wgt id='1777'> +7.3800506e+04 </wgt>
<wgt id='1778'> +7.3940840e+04 </wgt>
<wgt id='1779'> +7.4040657e+04 </wgt>
<wgt id='1780'> +7.3839339e+04 </wgt>
<wgt id='1781'> +7.4159402e+04 </wgt>
<wgt id='1782'> +7.3834809e+04 </wgt>
<wgt id='1783'> +7.3858048e+04 </wgt>
<wgt id='1784'> +7.4740920e+04 </wgt>
<wgt id='1785'> +7.4663085e+04 </wgt>
<wgt id='1786'> +7.3922173e+04 </wgt>
<wgt id='1787'> +7.4725838e+04 </wgt>
<wgt id='1788'> +7.4961491e+04 </wgt>
<wgt id='1789'> +7.4777578e+04 </wgt>
<wgt id='1790'> +7.4091610e+04 </wgt>
<wgt id='1791'> +7.4630000e+04 </wgt>
<wgt id='1792'> +7.4604621e+04 </wgt>
<wgt id='1793'> +7.4852900e+04 </wgt>
<wgt id='1794'> +7.5141092e+04 </wgt>
<wgt id='1795'> +7.4150159e+04 </wgt>
<wgt id='1796'> +7.4831483e+04 </wgt>
<wgt id='1797'> +7.5174070e+04 </wgt>
<wgt id='1798'> +7.4663665e+04 </wgt>
<wgt id='1799'> +7.5606985e+04 </wgt>
<wgt id='1800'> +7.4925483e+04 </wgt>
<wgt id='1801'> +7.4972347e+04 </wgt>
<wgt id='1802'> +7.4715517e+04 </wgt>
<wgt id='1803'> +7.4972519e+04 </wgt>
<wgt id='1804'> +7.3642492e+04 </wgt>
<wgt id='1805'> +7.4730599e+04 </wgt>
<wgt id='1806'> +7.4604475e+04 </wgt>
<wgt id='1807'> +7.4764606e+04 </wgt>
<wgt id='1808'> +7.4736457e+04 </wgt>
<wgt id='1809'> +7.4146441e+04 </wgt>
<wgt id='1810'> +7.4756172e+04 </wgt>
<wgt id='1811'> +7.4609523e+04 </wgt>
<wgt id='1812'> +7.4758134e+04 </wgt>
<wgt id='1813'> +7.4650807e+04 </wgt>
<wgt id='1814'> +7.4704504e+04 </wgt>
<wgt id='1815'> +7.4735446e+04 </wgt>
<wgt id='1816'> +7.4730084e+04 </wgt>
<wgt id='1817'> +7.4610461e+04 </wgt>
<wgt id='1818'> +7.4746833e+04 </wgt>
<wgt id='1819'> +7.4598406e+04 </wgt>
<wgt id='1820'> +7.4655929e+04 </wgt>
<wgt id='1821'> +7.4721740e+04 </wgt>
<wgt id='1822'> +7.4587765e+04 </wgt>
<wgt id='1823'> +7.4601541e+04 </wgt>
<wgt id='1824'> +7.4787037e+04 </wgt>
<wgt id='1825'> +7.4498639e+04 </wgt>
<wgt id='1826'> +7.5198571e+04 </wgt>
<wgt id='1827'> +8.5205580e+04 </wgt>
<wgt id='1828'> +8.5299510e+04 </wgt>
<wgt id='1829'> +8.5144745e+04 </wgt>
<wgt id='1830'> +8.5482939e+04 </wgt>
<wgt id='1831'> +8.4960049e+04 </wgt>
<wgt id='1832'> +8.5010848e+04 </wgt>
<wgt id='1833'> +8.5432391e+04 </wgt>
<wgt id='1834'> +8.4794025e+04 </wgt>
<wgt id='1835'> +8.5631724e+04 </wgt>
<wgt id='1836'> +8.5648988e+04 </wgt>
<wgt id='1837'> +8.4768277e+04 </wgt>
<wgt id='1838'> +8.5660872e+04 </wgt>
<wgt id='1839'> +8.4778351e+04 </wgt>
<wgt id='1840'> +8.5239161e+04 </wgt>
<wgt id='1841'> +8.5220501e+04 </wgt>
<wgt id='1842'> +8.5440247e+04 </wgt>
<wgt id='1843'> +8.5585539e+04 </wgt>
<wgt id='1844'> +8.5363442e+04 </wgt>
<wgt id='1845'> +8.5054800e+04 </wgt>
<wgt id='1846'> +8.5035471e+04 </wgt>
<wgt id='1847'> +8.5388013e+04 </wgt>
<wgt id='1848'> +8.4640276e+04 </wgt>
<wgt id='1849'> +8.5719192e+04 </wgt>
<wgt id='1850'> +8.4974612e+04 </wgt>
<wgt id='1851'> +8.5237136e+04 </wgt>
<wgt id='1852'> +8.5320092e+04 </wgt>
<wgt id='1853'> +8.4745705e+04 </wgt>
<wgt id='1854'> +8.5021209e+04 </wgt>
<wgt id='1855'> +8.5355949e+04 </wgt>
<wgt id='1856'> +7.5962875e+04 </wgt>
<wgt id='1857'> +7.5951717e+04 </wgt>
<wgt id='1858'> +7.5969709e+04 </wgt>
<wgt id='1859'> +7.5928782e+04 </wgt>
<wgt id='1860'> +7.5962385e+04 </wgt>
<wgt id='1861'> +7.5902029e+04 </wgt>
<wgt id='1862'> +7.5812434e+04 </wgt>
<wgt id='1863'> +7.5803794e+04 </wgt>
<wgt id='1864'> +7.5739060e+04 </wgt>
<wgt id='1865'> +7.5806874e+04 </wgt>
<wgt id='1866'> +7.6184851e+04 </wgt>
<wgt id='1867'> +7.5925753e+04 </wgt>
<wgt id='1868'> +7.6036403e+04 </wgt>
<wgt id='1869'> +7.6045538e+04 </wgt>
<wgt id='1870'> +7.5848126e+04 </wgt>
<wgt id='1871'> +7.5923032e+04 </wgt>
<wgt id='1872'> +7.5852789e+04 </wgt>
<wgt id='1873'> +7.5933244e+04 </wgt>
<wgt id='1874'> +7.5944361e+04 </wgt>
<wgt id='1875'> +7.6031749e+04 </wgt>
<wgt id='1876'> +7.5696531e+04 </wgt>
<wgt id='1877'> +7.5839133e+04 </wgt>
<wgt id='1878'> +7.5895165e+04 </wgt>
<wgt id='1879'> +7.6093707e+04 </wgt>
<wgt id='1880'> +7.6149675e+04 </wgt>
<wgt id='1881'> +7.6182365e+04 </wgt>
<wgt id='1882'> +7.5965167e+04 </wgt>
<wgt id='1883'> +7.5875835e+04 </wgt>
<wgt id='1884'> +7.6036725e+04 </wgt>
<wgt id='1885'> +7.5278537e+04 </wgt>
<wgt id='1886'> +7.7850827e+04 </wgt>
<wgt id='1887'> +8.5746115e+04 </wgt>
<wgt id='1888'> +8.3288714e+04 </wgt>
<wgt id='1889'> +9.7082281e+04 </wgt>
</rwgt>
</event>
<event npLO=" -1 " npNLO=" 0 ">
 6      1 +7.4519530e+04 3.76148630e+01 7.55820760e-03 1.18688870e-01
       -4 -1    0    0    0  501 +0.0000000000e+00 +0.0000000000e+00 +1.7115521245e+01 1.7115521245e+01 0.0000000000e+00 0.0000e+00 1.0000e+00
       21 -1    0    0  501  502 +0.0000000000e+00 +0.0000000000e+00 -2.5927907982e+02 2.5927907982e+02 0.0000000000e+00 0.0000e+00 1.0000e+00
      -24  2    1    2    0    0 +1.9444774053e+01 +9.2125729989e+00 -1.0187275670e+02 1.3446335070e+02 8.5084448549e+01 0.0000e+00 0.0000e+00
       13  1    3    3    0    0 -1.7432759404e+01 +3.0838372752e+01 -7.7597762281e+01 8.5301342577e+01 0.0000000000e+00 0.0000e+00 -1.0000e+00
      -14  1    3    3    0    0 +3.6877533457e+01 -2.1625799753e+01 -2.4274994423e+01 4.9162008127e+01 0.0000000000e+00 0.0000e+00 1.0000e+00
       -3  1    1    2    0  502 -1.9444774053e+01 -9.2125729989e+00 -1.4029080187e+02 1.4193125036e+02 0.0000000000e+00 0.0000e+00 1.0000e+00
#aMCatNLO 2  0  0  2  1 0.22444090E+02 0.00000000E+00 -9  5  0 0.00000000E+00 0.00000000E+00 0.00000000E+00 0.00000000E+00 0.00000000E+00
<rwgt>
<wgt id='1001'> +7.4519530e+04 </wgt>
<wgt id='1002'> +6.7431159e+04 </wgt>
<wgt id='1003'> +8.3324536e+04 </wgt>
<wgt id='1004'> +8.0864012e+04 </wgt>
<wgt id='1005'> +7.3172143e+04 </wgt>
<wgt id='1006'> +9.0418658e+04 </wgt>
<wgt id='1007'> +6.6572492e+04 </wgt>
<wgt id='1008'> +6.0240047e+04 </wgt>
<wgt id='1009'> +7.4438496e+04 </wgt>
<wgt id='1010'> +7.4519530e+04 </wgt>
<wgt id='1011'> +7.4769093e+04 </wgt>
<wgt id='1012'> +7.4402467e+04 </wgt>
<wgt id='1013'> +7.4618081e+04 </wgt>
<wgt id='1014'> +7.4687510e+04 </wgt>
<wgt id='1015'> +7.4675328e+04 </wgt>
<wgt id='1016'> +7.4658190e+04 </wgt>
<wgt id='1017'> +7.4725433e+04 </wgt>
<wgt id='1018'> +7.4747498e+04 </wgt>
<wgt id='1019'> +7.4409591e+04 </wgt>
<wgt id='1020'> +7.4639650e+04 </wgt>
<wgt id='1021'> +7.4282639e+04 </wgt>
<wgt id='1022'> +7.4623269e+04 </wgt>
<wgt id='1023'> +7.4296958e+04 </wgt>
<wgt id='1024'> +7.4380648e+04 </wgt>
<wgt id='1025'> +7.4569105e+04 </wgt>
<wgt id='1026'> +7.4125827e+04 </wgt>
<wgt id='1027'> +7.4222883e+04 </wgt>
<wgt id='1028'> +7.4927191e+04 </wgt>
<wgt id='1029'> +7.4985265e+04 </wgt>
<wgt id='1030'> +7.4323885e+04 </wgt>
<wgt id='1031'> +7.4766879e+04 </wgt>
<wgt id='1032'> +7.4203197e+04 </wgt>
<wgt id='1033'> +7.4525139e+04 </wgt>
<wgt id='1034'> +7.4687076e+04 </wgt>
<wgt id='1035'> +7.4443709e+04 </wgt>
<wgt id='1036'> +7.4656766e+04 </wgt>
<wgt id='1037'> +7.3946685e+04 </wgt>
<wgt id='1038'> +7.4539923e+04 </wgt>
<wgt id='1039'> +7.4403869e+04 </wgt>
<wgt id='1040'> +7.4288994e+04 </wgt>
<wgt id='1041'> +7.4261917e+04 </wgt>
<wgt id='1042'> +7.4530204e+04 </wgt>
<wgt id='1043'> +7.4559142e+04 </wgt>
<wgt id='1044'> +7.4494383e+04 </wgt>
<wgt id='1045'> +7.4472497e+04 </wgt>
<wgt id='1046'> +7.4451652e+04 </wgt>
<wgt id='1047'> +7.4398398e+04 </wgt>
<wgt id='1048'> +7.4256097e+04 </wgt>
<wgt id='1049'> +7.4430506e+04 </wgt>
<wgt id='1050'> +7.4407697e+04 </wgt>
<wgt id='1051'> +7.4421356e+04 </wgt>
<wgt id='1052'> +7.4412706e+04 </wgt>
<wgt id='1053'> +7.4591819e+04 </wgt>
<wgt id='1054'> +7.4548027e+04 </wgt>
<wgt id='1055'> +7.4367120e+04 </wgt>
<wgt id='1056'> +7.4580641e+04 </wgt>
<wgt id='1057'> +7.4543559e+04 </wgt>
<wgt id='1058'> +7.4478312e+04 </wgt>
<wgt id='1059'> +7.4526590e+04 </wgt>
<wgt id='1060'> +7.4623379e+04 </wgt>
<wgt id='1061'> +7.4523674e+04 </wgt>
<wgt id='1062'> +7.4574846e+04 </wgt>
<wgt id='1063'> +7.4591777e+04 </wgt>
<wgt id='1064'> +7.4651909e+04 </wgt>
<wgt id='1065'> +7.4588674e+04 </wgt>
<wgt id='1066'> +7.4413444e+04 </wgt>
<wgt id='1067'> +7.4504251e+04 </wgt>
<wgt id='1068'> +7.4612015e+04 </wgt>
<wgt id='1069'> +7.4393201e+04 </wgt>
<wgt id='1070'> +7.4552785e+04 </wgt>
<wgt id='1071'> +7.4567472e+04 </wgt>
<wgt id='1072'> +7.4413836e+04 </wgt>
<wgt id='1073'> +7.4494169e+04 </wgt>
<wgt id='1074'> +7.4614501e+04 </wgt>
<wgt id='1075'> +7.4557774e+04 </wgt>
<wgt id='1076'> +7.4583930e+04 </wgt>
<wgt id='1077'> +7.4413836e+04 </wgt>
<wgt id='1078'> +7.4511610e+04 </wgt>
<wgt id='1079'> +7.4535215e+04 </wgt>
<wgt id='1080'> +7.4518701e+04 </wgt>
<wgt id='1081'> +7.4506192e+04 </wgt>
<wgt id='1082'> +7.4597309e+04 </wgt>
<wgt id='1083'> +7.4445421e+04 </wgt>
<wgt id='1084'> +7.4478150e+04 </wgt>
<wgt id='1085'> +7.4474258e+04 </wgt>
<wgt id='1086'> +7.4534172e+04 </wgt>
<wgt id='1087'> +7.4596896e+04 </wgt>
<wgt id='1088'> +7.4438377e+04 </wgt>
<wgt id='1089'> +7.4446051e+04 </wgt>
<wgt id='1090'> +7.4607654e+04 </wgt>
<wgt id='1091'> +7.4424722e+04 </wgt>
<wgt id='1092'> +7.4449819e+04 </wgt>
<wgt id='1093'> +7.4515381e+04 </wgt>
<wgt id='1094'> +7.4522364e+04 </wgt>
<wgt id='1095'> +7.4539634e+04 </wgt>
<wgt id='1096'> +7.4526667e+04 </wgt>
<wgt id='1097'> +7.4501807e+04 </wgt>
<wgt id='1098'> +7.4590953e+04 </wgt>
<wgt id='1099'> +7.4528955e+04 </wgt>
<wgt id='1100'> +7.4536889e+04 </wgt>
<wgt id='1101'> +7.4564833e+04 </wgt>
<wgt id='1102'> +7.4549912e+04 </wgt>
<wgt id='1103'> +7.4533854e+04 </wgt>
<wgt id='1104'> +7.4440686e+04 </wgt>
<wgt id='1105'> +7.4479893e+04 </wgt>
<wgt id='1106'> +7.4473807e+04 </wgt>
<wgt id='1107'> +7.4563932e+04 </wgt>
<wgt id='1108'> +7.4535376e+04 </wgt>
<wgt id='1109'> +7.4472096e+04 </wgt>
<wgt id='1110'> +7.4519535e+04 </wgt>
<wgt id='1111'> +7.2547044e+04 </wgt>
<wgt id='1112'> +7.6221650e+04 </wgt>
<wgt id='1113'> +7.4519535e+04 </wgt>
<wgt id='1114'> +7.2808833e+04 </wgt>
<wgt id='1115'> +7.5388222e+04 </wgt>
<wgt id='1116'> +7.6355278e+04 </wgt>
<wgt id='1117'> +7.4452261e+04 </wgt>
<wgt id='1118'> +7.4522625e+04 </wgt>
<wgt id='1119'> +7.2893278e+04 </wgt>
<wgt id='1120'> +7.5262440e+04 </wgt>
<wgt id='1121'> +7.5439642e+04 </wgt>
<wgt id='1122'> +7.6810984e+04 </wgt>
<wgt id='1123'> +7.6261036e+04 </wgt>
<wgt id='1124'> +7.4862323e+04 </wgt>
<wgt id='1125'> +7.4084222e+04 </wgt>
<wgt id='1126'> +7.4080188e+04 </wgt>
<wgt id='1127'> +7.3323612e+04 </wgt>
<wgt id='1128'> +7.5452773e+04 </wgt>
<wgt id='1129'> +7.5343413e+04 </wgt>
<wgt id='1130'> +7.7038386e+04 </wgt>
<wgt id='1131'> +7.4274611e+04 </wgt>
<wgt id='1132'> +7.3448138e+04 </wgt>
<wgt id='1133'> +7.5763932e+04 </wgt>
<wgt id='1134'> +7.5129163e+04 </wgt>
<wgt id='1135'> +7.4453550e+04 </wgt>
<wgt id='1136'> +7.4203748e+04 </wgt>
<wgt id='1137'> +7.4032099e+04 </wgt>
<wgt id='1138'> +7.4242903e+04 </wgt>
<wgt id='1139'> +7.5844352e+04 </wgt>
<wgt id='1140'> +7.3853583e+04 </wgt>
<wgt id='1141'> +7.3952864e+04 </wgt>
<wgt id='1142'> +7.4685409e+04 </wgt>
<wgt id='1143'> +7.5522136e+04 </wgt>
<wgt id='1144'> +7.5339876e+04 </wgt>
<wgt id='1145'> +7.5240748e+04 </wgt>
<wgt id='1146'> +7.2564265e+04 </wgt>
<wgt id='1147'> +7.3210031e+04 </wgt>
<wgt id='1148'> +7.5517288e+04 </wgt>
<wgt id='1149'> +7.3977442e+04 </wgt>
<wgt id='1150'> +7.6079104e+04 </wgt>
<wgt id='1151'> +7.4727812e+04 </wgt>
<wgt id='1152'> +7.3693662e+04 </wgt>
<wgt id='1153'> +7.3512729e+04 </wgt>
<wgt id='1154'> +7.3656060e+04 </wgt>
<wgt id='1155'> +7.1440487e+04 </wgt>
<wgt id='1156'> +7.3136883e+04 </wgt>
<wgt id='1157'> +7.2083290e+04 </wgt>
<wgt id='1158'> +7.3612174e+04 </wgt>
<wgt id='1159'> +7.4290591e+04 </wgt>
<wgt id='1160'> +7.1792133e+04 </wgt>
<wgt id='1161'> +7.3946293e+04 </wgt>
<wgt id='1162'> +7.4254262e+04 </wgt>
<wgt id='1163'> +7.5601325e+04 </wgt>
<wgt id='1164'> +7.3687334e+04 </wgt>
<wgt id='1165'> +7.6045573e+04 </wgt>
<wgt id='1166'> +7.3658955e+04 </wgt>
<wgt id='1167'> +7.4216715e+04 </wgt>
<wgt id='1168'> +7.2969809e+04 </wgt>
<wgt id='1169'> +7.3810814e+04 </wgt>
<wgt id='1170'> +7.4271550e+04 </wgt>
<wgt id='1171'> +7.4398816e+04 </wgt>
<wgt id='1172'> +7.5954203e+04 </wgt>
<wgt id='1173'> +7.5954535e+04 </wgt>
<wgt id='1174'> +7.4479347e+04 </wgt>
<wgt id='1175'> +7.5231997e+04 </wgt>
<wgt id='1176'> +7.3237504e+04 </wgt>
<wgt id='1177'> +7.3981293e+04 </wgt>
<wgt id='1178'> +7.4056893e+04 </wgt>
<wgt id='1179'> +7.2195185e+04 </wgt>
<wgt id='1180'> +7.1228672e+04 </wgt>
<wgt id='1181'> +7.6875229e+04 </wgt>
<wgt id='1182'> +7.3666486e+04 </wgt>
<wgt id='1183'> +7.4761746e+04 </wgt>
<wgt id='1184'> +7.6881213e+04 </wgt>
<wgt id='1185'> +7.4856511e+04 </wgt>
<wgt id='1186'> +7.7064986e+04 </wgt>
<wgt id='1187'> +7.6884467e+04 </wgt>
<wgt id='1188'> +7.4554558e+04 </wgt>
<wgt id='1189'> +7.2882598e+04 </wgt>
<wgt id='1190'> +7.5836904e+04 </wgt>
<wgt id='1191'> +7.4490567e+04 </wgt>
<wgt id='1192'> +7.4486881e+04 </wgt>
<wgt id='1193'> +7.2487668e+04 </wgt>
<wgt id='1194'> +7.2708550e+04 </wgt>
<wgt id='1195'> +7.5343413e+04 </wgt>
<wgt id='1196'> +7.2849456e+04 </wgt>
<wgt id='1197'> +7.5554955e+04 </wgt>
<wgt id='1198'> +7.7590295e+04 </wgt>
<wgt id='1199'> +7.1124875e+04 </wgt>
<wgt id='1200'> +7.3207088e+04 </wgt>
<wgt id='1201'> +7.4590383e+04 </wgt>
<wgt id='1202'> +7.7814407e+04 </wgt>
<wgt id='1203'> +7.3598288e+04 </wgt>
<wgt id='1204'> +7.3102716e+04 </wgt>
<wgt id='1205'> +7.5468928e+04 </wgt>
<wgt id='1206'> +7.5360578e+04 </wgt>
<wgt id='1207'> +7.4933758e+04 </wgt>
<wgt id='1208'> +7.5275375e+04 </wgt>
<wgt id='1209'> +7.3328914e+04 </wgt>
<wgt id='1210'> +7.2631257e+04 </wgt>
<wgt id='1211'> +7.6907071e+04 </wgt>
<wgt id='1212'> +7.6074576e+04 </wgt>
<wgt id='1213'> +7.7948956e+04 </wgt>
<wgt id='1214'> +7.4434700e+04 </wgt>
<wgt id='1215'> +6.5084919e+04 </wgt>
<wgt id='1216'> +6.6853410e+04 </wgt>
<wgt id='1217'> +6.8818578e+04 </wgt>
<wgt id='1218'> +7.0697182e+04 </wgt>
<wgt id='1219'> +7.3610739e+04 </wgt>
<wgt id='1220'> +7.5467369e+04 </wgt>
<wgt id='1221'> +7.8078400e+04 </wgt>
<wgt id='1222'> +7.9808241e+04 </wgt>
<wgt id='1223'> +7.3175580e+04 </wgt>
<wgt id='1224'> +7.3353596e+04 </wgt>
<wgt id='1225'> +7.2914016e+04 </wgt>
<wgt id='1226'> +7.3411162e+04 </wgt>
<wgt id='1227'> +7.3227753e+04 </wgt>
<wgt id='1228'> +7.3422560e+04 </wgt>
<wgt id='1229'> +7.3261949e+04 </wgt>
<wgt id='1230'> +7.3119317e+04 </wgt>
<wgt id='1231'> +7.2957166e+04 </wgt>
<wgt id='1232'> +7.2743436e+04 </wgt>
<wgt id='1233'> +7.2970749e+04 </wgt>
<wgt id='1234'> +7.3394817e+04 </wgt>
<wgt id='1235'> +7.3629883e+04 </wgt>
<wgt id='1236'> +7.2673317e+04 </wgt>
<wgt id='1237'> +7.3376924e+04 </wgt>
<wgt id='1238'> +7.3339326e+04 </wgt>
<wgt id='1239'> +7.3275055e+04 </wgt>
<wgt id='1240'> +7.3414125e+04 </wgt>
<wgt id='1241'> +7.3247005e+04 </wgt>
<wgt id='1242'> +7.2887985e+04 </wgt>
<wgt id='1243'> +7.3101038e+04 </wgt>
<wgt id='1244'> +7.2855483e+04 </wgt>
<wgt id='1245'> +7.3141071e+04 </wgt>
<wgt id='1246'> +7.3114859e+04 </wgt>
<wgt id='1247'> +7.2809545e+04 </wgt>
<wgt id='1248'> +7.3383047e+04 </wgt>
<wgt id='1249'> +7.3342628e+04 </wgt>
<wgt id='1250'> +7.2981748e+04 </wgt>
<wgt id='1251'> +7.3078047e+04 </wgt>
<wgt id='1252'> +7.2710585e+04 </wgt>
<wgt id='1253'> +7.3250594e+04 </wgt>
<wgt id='1254'> +7.3155062e+04 </wgt>
<wgt id='1255'> +7.3415440e+04 </wgt>
<wgt id='1256'> +7.3203248e+04 </wgt>
<wgt id='1257'> +7.2985962e+04 </wgt>
<wgt id='1258'> +7.3124388e+04 </wgt>
<wgt id='1259'> +7.3164166e+04 </wgt>
<wgt id='1260'> +7.3196673e+04 </wgt>
<wgt id='1261'> +7.3138149e+04 </wgt>
<wgt id='1262'> +7.3271920e+04 </wgt>
<wgt id='1263'> +7.3215636e+04 </wgt>
<wgt id='1264'> +7.3335455e+04 </wgt>
<wgt id='1265'> +7.3231140e+04 </wgt>
<wgt id='1266'> +7.3203140e+04 </wgt>
<wgt id='1267'> +7.3227500e+04 </wgt>
<wgt id='1268'> +7.3084506e+04 </wgt>
<wgt id='1269'> +7.3098353e+04 </wgt>
<wgt id='1270'> +7.3225535e+04 </wgt>
<wgt id='1271'> +7.3307143e+04 </wgt>
<wgt id='1272'> +7.3140482e+04 </wgt>
<wgt id='1273'> +7.3167482e+04 </wgt>
<wgt id='1274'> +7.3194534e+04 </wgt>
<wgt id='1275'> +7.3315563e+04 </wgt>
<wgt id='1276'> +7.3163936e+04 </wgt>
<wgt id='1277'> +7.3229166e+04 </wgt>
<wgt id='1278'> +7.3213002e+04 </wgt>
<wgt id='1279'> +7.3188404e+04 </wgt>
<wgt id='1280'> +7.3145061e+04 </wgt>
<wgt id='1281'> +7.3102256e+04 </wgt>
<wgt id='1282'> +7.3195557e+04 </wgt>
<wgt id='1283'> +7.3165249e+04 </wgt>
<wgt id='1284'> +7.3175756e+04 </wgt>
<wgt id='1285'> +7.3151105e+04 </wgt>
<wgt id='1286'> +7.3192151e+04 </wgt>
<wgt id='1287'> +7.3156680e+04 </wgt>
<wgt id='1288'> +7.3226094e+04 </wgt>
<wgt id='1289'> +7.3106356e+04 </wgt>
<wgt id='1290'> +7.3174690e+04 </wgt>
<wgt id='1291'> +7.3226071e+04 </wgt>
<wgt id='1292'> +7.3159283e+04 </wgt>
<wgt id='1293'> +7.3155147e+04 </wgt>
<wgt id='1294'> +7.3175801e+04 </wgt>
<wgt id='1295'> +7.3214411e+04 </wgt>
<wgt id='1296'> +7.3132005e+04 </wgt>
<wgt id='1297'> +7.3140666e+04 </wgt>
<wgt id='1298'> +7.3171314e+04 </wgt>
<wgt id='1299'> +7.3157576e+04 </wgt>
<wgt id='1300'> +7.3100430e+04 </wgt>
<wgt id='1301'> +7.3180651e+04 </wgt>
<wgt id='1302'> +7.3203934e+04 </wgt>
<wgt id='1303'> +7.3228988e+04 </wgt>
<wgt id='1304'> +7.3204682e+04 </wgt>
<wgt id='1305'> +7.3218994e+04 </wgt>
<wgt id='1306'> +7.3194608e+04 </wgt>
<wgt id='1307'> +7.3161676e+04 </wgt>
<wgt id='1308'> +7.3170253e+04 </wgt>
<wgt id='1309'> +7.3201048e+04 </wgt>
<wgt id='1310'> +7.3203568e+04 </wgt>
<wgt id='1311'> +7.3200764e+04 </wgt>
<wgt id='1312'> +7.3142984e+04 </wgt>
<wgt id='1313'> +7.3182735e+04 </wgt>
<wgt id='1314'> +7.3175958e+04 </wgt>
<wgt id='1315'> +7.3173029e+04 </wgt>
<wgt id='1316'> +7.3157313e+04 </wgt>
<wgt id='1317'> +7.3178646e+04 </wgt>
<wgt id='1318'> +7.3158879e+04 </wgt>
<wgt id='1319'> +7.3169399e+04 </wgt>
<wgt id='1320'> +7.3167961e+04 </wgt>
<wgt id='1321'> +7.3189604e+04 </wgt>
<wgt id='1322'> +7.3160531e+04 </wgt>
<wgt id='1323'> +7.3134061e+04 </wgt>
<wgt id='1324'> +7.1365438e+04 </wgt>
<wgt id='1325'> +7.5293582e+04 </wgt>
<wgt id='1326'> +7.5676199e+04 </wgt>
<wgt id='1327'> +7.7413254e+04 </wgt>
<wgt id='1328'> +7.3113557e+04 </wgt>
<wgt id='1329'> +7.3234085e+04 </wgt>
<wgt id='1330'> +7.3535163e+04 </wgt>
<wgt id='1331'> +7.2462134e+04 </wgt>
<wgt id='1332'> +7.3213951e+04 </wgt>
<wgt id='1333'> +7.3035743e+04 </wgt>
<wgt id='1334'> +7.3312525e+04 </wgt>
<wgt id='1335'> +7.4646788e+04 </wgt>
<wgt id='1336'> +7.3438848e+04 </wgt>
<wgt id='1337'> +7.3419089e+04 </wgt>
<wgt id='1338'> +7.2410325e+04 </wgt>
<wgt id='1339'> +7.5017801e+04 </wgt>
<wgt id='1340'> +7.3477404e+04 </wgt>
<wgt id='1341'> +7.2466072e+04 </wgt>
<wgt id='1342'> +7.2690527e+04 </wgt>
<wgt id='1343'> +7.2825893e+04 </wgt>
<wgt id='1344'> +7.2045703e+04 </wgt>
<wgt id='1345'> +7.3332027e+04 </wgt>
<wgt id='1346'> +7.2811783e+04 </wgt>
<wgt id='1347'> +7.3947015e+04 </wgt>
<wgt id='1348'> +7.2207843e+04 </wgt>
<wgt id='1349'> +7.3042840e+04 </wgt>
<wgt id='1350'> +7.1976346e+04 </wgt>
<wgt id='1351'> +7.3672061e+04 </wgt>
<wgt id='1352'> +7.2424075e+04 </wgt>
<wgt id='1353'> +7.2412446e+04 </wgt>
<wgt id='1354'> +7.2206726e+04 </wgt>
<wgt id='1355'> +7.2154232e+04 </wgt>
<wgt id='1356'> +7.3126767e+04 </wgt>
<wgt id='1357'> +7.2660009e+04 </wgt>
<wgt id='1358'> +7.2747738e+04 </wgt>
<wgt id='1359'> +7.3176604e+04 </wgt>
<wgt id='1360'> +7.3408217e+04 </wgt>
<wgt id='1361'> +7.2923027e+04 </wgt>
<wgt id='1362'> +7.3826652e+04 </wgt>
<wgt id='1363'> +7.3011693e+04 </wgt>
<wgt id='1364'> +7.1799345e+04 </wgt>
<wgt id='1365'> +7.3440252e+04 </wgt>
<wgt id='1366'> +7.3428305e+04 </wgt>
<wgt id='1367'> +7.3050641e+04 </wgt>
<wgt id='1368'> +7.3832129e+04 </wgt>
<wgt id='1369'> +7.2859157e+04 </wgt>
<wgt id='1370'> +7.2143906e+04 </wgt>
<wgt id='1371'> +7.4337496e+04 </wgt>
<wgt id='1372'> +7.4075011e+04 </wgt>
<wgt id='1373'> +7.3693329e+04 </wgt>
<wgt id='1374'> +7.2261507e+04 </wgt>
<wgt id='1375'> +7.2880166e+04 </wgt>
<wgt id='1376'> +7.2696950e+04 </wgt>
<wgt id='1377'> +7.4050691e+04 </wgt>
<wgt id='1378'> +7.3809552e+04 </wgt>
<wgt id='1379'> +7.3316727e+04 </wgt>
<wgt id='1380'> +7.2805349e+04 </wgt>
<wgt id='1381'> +7.4070662e+04 </wgt>
<wgt id='1382'> +7.3603765e+04 </wgt>
<wgt id='1383'> +7.2967000e+04 </wgt>
<wgt id='1384'> +7.1833225e+04 </wgt>
<wgt id='1385'> +7.3186870e+04 </wgt>
<wgt id='1386'> +7.3438009e+04 </wgt>
<wgt id='1387'> +7.3316584e+04 </wgt>
<wgt id='1388'> +7.2951415e+04 </wgt>
<wgt id='1389'> +7.2928362e+04 </wgt>
<wgt id='1390'> +7.1960331e+04 </wgt>
<wgt id='1391'> +7.2623602e+04 </wgt>
<wgt id='1392'> +7.3188959e+04 </wgt>
<wgt id='1393'> +7.4861144e+04 </wgt>
<wgt id='1394'> +7.3440252e+04 </wgt>
<wgt id='1395'> +7.2357280e+04 </wgt>
<wgt id='1396'> +7.3953126e+04 </wgt>
<wgt id='1397'> +7.3821185e+04 </wgt>
<wgt id='1398'> +7.3553895e+04 </wgt>
<wgt id='1399'> +7.3286510e+04 </wgt>
<wgt id='1400'> +7.3257731e+04 </wgt>
<wgt id='1401'> +7.3678913e+04 </wgt>
<wgt id='1402'> +7.2901014e+04 </wgt>
<wgt id='1403'> +7.1913782e+04 </wgt>
<wgt id='1404'> +7.3686658e+04 </wgt>
<wgt id='1405'> +7.4794798e+04 </wgt>
<wgt id='1406'> +7.3018294e+04 </wgt>
<wgt id='1407'> +7.3002402e+04 </wgt>
<wgt id='1408'> +7.2419575e+04 </wgt>
<wgt id='1409'> +7.2202179e+04 </wgt>
<wgt id='1410'> +7.4440013e+04 </wgt>
<wgt id='1411'> +7.2797370e+04 </wgt>
<wgt id='1412'> +7.3211417e+04 </wgt>
<wgt id='1413'> +7.2691479e+04 </wgt>
<wgt id='1414'> +7.2626825e+04 </wgt>
<wgt id='1415'> +7.2884378e+04 </wgt>
<wgt id='1416'> +7.4071900e+04 </wgt>
<wgt id='1417'> +7.3471778e+04 </wgt>
<wgt id='1418'> +7.3038415e+04 </wgt>
<wgt id='1419'> +7.3416403e+04 </wgt>
<wgt id='1420'> +7.3098850e+04 </wgt>
<wgt id='1421'> +7.1794574e+04 </wgt>
<wgt id='1422'> +7.2534828e+04 </wgt>
<wgt id='1423'> +7.3425836e+04 </wgt>
<wgt id='1424'> +7.2651859e+04 </wgt>
<wgt id='1425'> +7.3643872e+04 </wgt>
<wgt id='1426'> +7.3135515e+04 </wgt>
<wgt id='1427'> +7.2660186e+04 </wgt>
<wgt id='1428'> +7.2680081e+04 </wgt>
<wgt id='1429'> +7.1822130e+04 </wgt>
<wgt id='1430'> +7.4453691e+04 </wgt>
<wgt id='1431'> +7.3128929e+04 </wgt>
<wgt id='1432'> +7.3109970e+04 </wgt>
<wgt id='1433'> +7.3469680e+04 </wgt>
<wgt id='1434'> +7.3180628e+04 </wgt>
<wgt id='1435'> +7.3373497e+04 </wgt>
<wgt id='1436'> +7.2996054e+04 </wgt>
<wgt id='1437'> +7.3012918e+04 </wgt>
<wgt id='1438'> +7.3168588e+04 </wgt>
<wgt id='1439'> +7.3056226e+04 </wgt>
<wgt id='1440'> +7.3333920e+04 </wgt>
<wgt id='1441'> +7.3296164e+04 </wgt>
<wgt id='1442'> +7.2991994e+04 </wgt>
<wgt id='1443'> +7.3244229e+04 </wgt>
<wgt id='1444'> +7.3186716e+04 </wgt>
<wgt id='1445'> +7.3228064e+04 </wgt>
<wgt id='1446'> +7.3369940e+04 </wgt>
<wgt id='1447'> +7.2964430e+04 </wgt>
<wgt id='1448'> +7.3140052e+04 </wgt>
<wgt id='1449'> +7.2951126e+04 </wgt>
<wgt id='1450'> +7.3212065e+04 </wgt>
<wgt id='1451'> +7.3186865e+04 </wgt>
<wgt id='1452'> +7.3066578e+04 </wgt>
<wgt id='1453'> +7.3166848e+04 </wgt>
<wgt id='1454'> +7.3017103e+04 </wgt>
<wgt id='1455'> +7.3169863e+04 </wgt>
<wgt id='1456'> +7.3106137e+04 </wgt>
<wgt id='1457'> +7.3139587e+04 </wgt>
<wgt id='1458'> +7.3058091e+04 </wgt>
<wgt id='1459'> +7.3111030e+04 </wgt>
<wgt id='1460'> +7.3100385e+04 </wgt>
<wgt id='1461'> +7.3068588e+04 </wgt>
<wgt id='1462'> +7.3127703e+04 </wgt>
<wgt id='1463'> +7.3145858e+04 </wgt>
<wgt id='1464'> +7.3153822e+04 </wgt>
<wgt id='1465'> +7.3117868e+04 </wgt>
<wgt id='1466'> +7.3045605e+04 </wgt>
<wgt id='1467'> +7.3116166e+04 </wgt>
<wgt id='1468'> +7.3121394e+04 </wgt>
<wgt id='1469'> +7.3130307e+04 </wgt>
<wgt id='1470'> +7.3129829e+04 </wgt>
<wgt id='1471'> +7.3150518e+04 </wgt>
<wgt id='1472'> +7.3147470e+04 </wgt>
<wgt id='1473'> +7.3134914e+04 </wgt>
<wgt id='1474'> +7.3128012e+04 </wgt>
<wgt id='1475'> +7.3147773e+04 </wgt>
<wgt id='1476'> +7.3081882e+04 </wgt>
<wgt id='1477'> +7.3132418e+04 </wgt>
<wgt id='1478'> +7.3156465e+04 </wgt>
<wgt id='1479'> +7.3136040e+04 </wgt>
<wgt id='1480'> +7.3146277e+04 </wgt>
<wgt id='1481'> +7.3122425e+04 </wgt>
<wgt id='1482'> +7.1822130e+04 </wgt>
<wgt id='1483'> +7.4453691e+04 </wgt>
<wgt id='1484'> +7.1482484e+04 </wgt>
<wgt id='1485'> +7.1050819e+04 </wgt>
<wgt id='1486'> +7.1059757e+04 </wgt>
<wgt id='1487'> +7.2401624e+04 </wgt>
<wgt id='1488'> +7.3018782e+04 </wgt>
<wgt id='1489'> +7.1689047e+04 </wgt>
<wgt id='1490'> +7.2132153e+04 </wgt>
<wgt id='1491'> +7.1796788e+04 </wgt>
<wgt id='1492'> +7.2447560e+04 </wgt>
<wgt id='1493'> +7.1748042e+04 </wgt>
<wgt id='1494'> +7.0600272e+04 </wgt>
<wgt id='1495'> +7.2585792e+04 </wgt>
<wgt id='1496'> +7.2159946e+04 </wgt>
<wgt id='1497'> +7.1327801e+04 </wgt>
<wgt id='1498'> +7.1112123e+04 </wgt>
<wgt id='1499'> +7.1310108e+04 </wgt>
<wgt id='1500'> +7.0603151e+04 </wgt>
<wgt id='1501'> +7.2508923e+04 </wgt>
<wgt id='1502'> +7.0569457e+04 </wgt>
<wgt id='1503'> +7.1134299e+04 </wgt>
<wgt id='1504'> +7.1696770e+04 </wgt>
<wgt id='1505'> +7.1206298e+04 </wgt>
<wgt id='1506'> +7.2437022e+04 </wgt>
<wgt id='1507'> +7.1416114e+04 </wgt>
<wgt id='1508'> +7.1670764e+04 </wgt>
<wgt id='1509'> +7.0637405e+04 </wgt>
<wgt id='1510'> +7.1826977e+04 </wgt>
<wgt id='1511'> +7.0942193e+04 </wgt>
<wgt id='1512'> +7.3408109e+04 </wgt>
<wgt id='1513'> +7.0827745e+04 </wgt>
<wgt id='1514'> +7.1637331e+04 </wgt>
<wgt id='1515'> +7.1647883e+04 </wgt>
<wgt id='1516'> +7.1881458e+04 </wgt>
<wgt id='1517'> +7.0537228e+04 </wgt>
<wgt id='1518'> +7.0950916e+04 </wgt>
<wgt id='1519'> +7.0614991e+04 </wgt>
<wgt id='1520'> +7.1302812e+04 </wgt>
<wgt id='1521'> +7.2342507e+04 </wgt>
<wgt id='1522'> +7.0970031e+04 </wgt>
<wgt id='1523'> +7.1729716e+04 </wgt>
<wgt id='1524'> +7.1003962e+04 </wgt>
<wgt id='1525'> +7.1126542e+04 </wgt>
<wgt id='1526'> +6.9928006e+04 </wgt>
<wgt id='1527'> +7.1774935e+04 </wgt>
<wgt id='1528'> +7.1155936e+04 </wgt>
<wgt id='1529'> +7.1673439e+04 </wgt>
<wgt id='1530'> +7.1273994e+04 </wgt>
<wgt id='1531'> +7.2207185e+04 </wgt>
<wgt id='1532'> +7.3137678e+04 </wgt>
<wgt id='1533'> +7.1854720e+04 </wgt>
<wgt id='1534'> +7.1268042e+04 </wgt>
<wgt id='1535'> +7.2900325e+04 </wgt>
<wgt id='1536'> +7.0853405e+04 </wgt>
<wgt id='1537'> +7.1320134e+04 </wgt>
<wgt id='1538'> +7.0894641e+04 </wgt>
<wgt id='1539'> +7.1858422e+04 </wgt>
<wgt id='1540'> +7.2548488e+04 </wgt>
<wgt id='1541'> +7.1638609e+04 </wgt>
<wgt id='1542'> +7.1376762e+04 </wgt>
<wgt id='1543'> +7.1095343e+04 </wgt>
<wgt id='1544'> +7.1352444e+04 </wgt>
<wgt id='1545'> +7.0826844e+04 </wgt>
<wgt id='1546'> +7.0726499e+04 </wgt>
<wgt id='1547'> +7.0539763e+04 </wgt>
<wgt id='1548'> +7.2315880e+04 </wgt>
<wgt id='1549'> +7.1280530e+04 </wgt>
<wgt id='1550'> +7.1869189e+04 </wgt>
<wgt id='1551'> +7.2193956e+04 </wgt>
<wgt id='1552'> +6.9381101e+04 </wgt>
<wgt id='1553'> +7.1606301e+04 </wgt>
<wgt id='1554'> +7.1903197e+04 </wgt>
<wgt id='1555'> +7.1526087e+04 </wgt>
<wgt id='1556'> +7.0438275e+04 </wgt>
<wgt id='1557'> +7.1620020e+04 </wgt>
<wgt id='1558'> +7.1401984e+04 </wgt>
<wgt id='1559'> +7.1431873e+04 </wgt>
<wgt id='1560'> +7.1629364e+04 </wgt>
<wgt id='1561'> +7.0997964e+04 </wgt>
<wgt id='1562'> +7.1421035e+04 </wgt>
<wgt id='1563'> +7.2926040e+04 </wgt>
<wgt id='1564'> +7.1991404e+04 </wgt>
<wgt id='1565'> +7.2023678e+04 </wgt>
<wgt id='1566'> +7.0793231e+04 </wgt>
<wgt id='1567'> +7.0429899e+04 </wgt>
<wgt id='1568'> +7.0511187e+04 </wgt>
<wgt id='1569'> +7.1241114e+04 </wgt>
<wgt id='1570'> +7.0182291e+04 </wgt>
<wgt id='1571'> +7.1168063e+04 </wgt>
<wgt id='1572'> +7.2942312e+04 </wgt>
<wgt id='1573'> +7.0755867e+04 </wgt>
<wgt id='1574'> +7.0946695e+04 </wgt>
<wgt id='1575'> +7.2845868e+04 </wgt>
<wgt id='1576'> +7.1430035e+04 </wgt>
<wgt id='1577'> +7.1505058e+04 </wgt>
<wgt id='1578'> +7.0459239e+04 </wgt>
<wgt id='1579'> +7.1352708e+04 </wgt>
<wgt id='1580'> +7.0766130e+04 </wgt>
<wgt id='1581'> +7.0949347e+04 </wgt>
<wgt id='1582'> +7.2626620e+04 </wgt>
<wgt id='1583'> +7.1285782e+04 </wgt>
<wgt id='1584'> +7.2883158e+04 </wgt>
<wgt id='1585'> +7.2252417e+04 </wgt>
<wgt id='1586'> +5.3514453e+04 </wgt>
<wgt id='1587'> +7.0664942e+04 </wgt>
<wgt id='1588'> +7.1822130e+04 </wgt>
<wgt id='1589'> +7.2535010e+04 </wgt>
<wgt id='1590'> +7.3839464e+04 </wgt>
<wgt id='1591'> +7.4453691e+04 </wgt>
<wgt id='1592'> +7.5776346e+04 </wgt>
<wgt id='1593'> +7.3308512e+04 </wgt>
<wgt id='1594'> +7.3442323e+04 </wgt>
<wgt id='1595'> +7.3087483e+04 </wgt>
<wgt id='1596'> +7.4103080e+04 </wgt>
<wgt id='1597'> +7.1929501e+04 </wgt>
<wgt id='1598'> +7.2543753e+04 </wgt>
<wgt id='1599'> +7.3761604e+04 </wgt>
<wgt id='1600'> +7.4032209e+04 </wgt>
<wgt id='1601'> +7.2516318e+04 </wgt>
<wgt id='1602'> +7.3565217e+04 </wgt>
<wgt id='1603'> +7.3286154e+04 </wgt>
<wgt id='1604'> +7.3399893e+04 </wgt>
<wgt id='1605'> +7.3138249e+04 </wgt>
<wgt id='1606'> +7.2970324e+04 </wgt>
<wgt id='1607'> +7.3620016e+04 </wgt>
<wgt id='1608'> +7.3112650e+04 </wgt>
<wgt id='1609'> +7.2540825e+04 </wgt>
<wgt id='1610'> +7.3238345e+04 </wgt>
<wgt id='1611'> +7.3380283e+04 </wgt>
<wgt id='1612'> +7.3528638e+04 </wgt>
<wgt id='1613'> +7.2797906e+04 </wgt>
<wgt id='1614'> +7.3159896e+04 </wgt>
<wgt id='1615'> +7.3520677e+04 </wgt>
<wgt id='1616'> +7.2322535e+04 </wgt>
<wgt id='1617'> +7.3795583e+04 </wgt>
<wgt id='1618'> +7.3594350e+04 </wgt>
<wgt id='1619'> +7.2420152e+04 </wgt>
<wgt id='1620'> +7.2878057e+04 </wgt>
<wgt id='1621'> +7.3517748e+04 </wgt>
<wgt id='1622'> +7.2516127e+04 </wgt>
<wgt id='1623'> +7.3795083e+04 </wgt>
<wgt id='1624'> +7.3552991e+04 </wgt>
<wgt id='1625'> +7.1523918e+04 </wgt>
<wgt id='1626'> +7.2590334e+04 </wgt>
<wgt id='1627'> +7.3953365e+04 </wgt>
<wgt id='1628'> +7.2633041e+04 </wgt>
<wgt id='1629'> +7.3758208e+04 </wgt>
<wgt id='1630'> +7.3313680e+04 </wgt>
<wgt id='1631'> +7.2973468e+04 </wgt>
<wgt id='1632'> +7.3939256e+04 </wgt>
<wgt id='1633'> +7.2566454e+04 </wgt>
<wgt id='1634'> +7.3548907e+04 </wgt>
<wgt id='1635'> +7.3147561e+04 </wgt>
<wgt id='1636'> +7.3405017e+04 </wgt>
<wgt id='1637'> +7.3615225e+04 </wgt>
<wgt id='1638'> +7.4962578e+04 </wgt>
<wgt id='1639'> +7.2406538e+04 </wgt>
<wgt id='1640'> +7.2603248e+04 </wgt>
<wgt id='1641'> +7.3239075e+04 </wgt>
<wgt id='1642'> +7.3120779e+04 </wgt>
<wgt id='1643'> +7.3320512e+04 </wgt>
<wgt id='1644'> +7.5021934e+04 </wgt>
<wgt id='1645'> +7.1567003e+04 </wgt>
<wgt id='1646'> +7.3810000e+04 </wgt>
<wgt id='1647'> +7.3038896e+04 </wgt>
<wgt id='1648'> +7.3353998e+04 </wgt>
<wgt id='1649'> +7.3084281e+04 </wgt>
<wgt id='1650'> +7.3178579e+04 </wgt>
<wgt id='1651'> +7.3416882e+04 </wgt>
<wgt id='1652'> +7.3271831e+04 </wgt>
<wgt id='1653'> +7.3323171e+04 </wgt>
<wgt id='1654'> +7.3242293e+04 </wgt>
<wgt id='1655'> +7.3141594e+04 </wgt>
<wgt id='1656'> +7.1187535e+04 </wgt>
<wgt id='1657'> +7.1236946e+04 </wgt>
<wgt id='1658'> +7.1114415e+04 </wgt>
<wgt id='1659'> +7.1208700e+04 </wgt>
<wgt id='1660'> +7.1242580e+04 </wgt>
<wgt id='1661'> +7.1289053e+04 </wgt>
<wgt id='1662'> +7.0939515e+04 </wgt>
<wgt id='1663'> +7.1056592e+04 </wgt>
<wgt id='1664'> +7.1212387e+04 </wgt>
<wgt id='1665'> +7.0881264e+04 </wgt>
<wgt id='1666'> +7.1330189e+04 </wgt>
<wgt id='1667'> +7.1777910e+04 </wgt>
<wgt id='1668'> +7.0664173e+04 </wgt>
<wgt id='1669'> +7.1210333e+04 </wgt>
<wgt id='1670'> +7.1139564e+04 </wgt>
<wgt id='1671'> +7.1226600e+04 </wgt>
<wgt id='1672'> +7.0775564e+04 </wgt>
<wgt id='1673'> +7.0974620e+04 </wgt>
<wgt id='1674'> +7.1355635e+04 </wgt>
<wgt id='1675'> +7.0908574e+04 </wgt>
<wgt id='1676'> +7.1321383e+04 </wgt>
<wgt id='1677'> +7.0533573e+04 </wgt>
<wgt id='1678'> +7.1552943e+04 </wgt>
<wgt id='1679'> +7.1814209e+04 </wgt>
<wgt id='1680'> +7.1293975e+04 </wgt>
<wgt id='1681'> +7.0031967e+04 </wgt>
<wgt id='1682'> +7.1837712e+04 </wgt>
<wgt id='1683'> +7.0602961e+04 </wgt>
<wgt id='1684'> +7.1674698e+04 </wgt>
<wgt id='1685'> +7.1740198e+04 </wgt>
<wgt id='1686'> +7.0770791e+04 </wgt>
<wgt id='1687'> +7.0645387e+04 </wgt>
<wgt id='1688'> +7.1949745e+04 </wgt>
<wgt id='1689'> +7.1127477e+04 </wgt>
<wgt id='1690'> +7.1513485e+04 </wgt>
<wgt id='1691'> +7.1346112e+04 </wgt>
<wgt id='1692'> +7.0969394e+04 </wgt>
<wgt id='1693'> +7.1222403e+04 </wgt>
<wgt id='1694'> +7.1513223e+04 </wgt>
<wgt id='1695'> +7.2131045e+04 </wgt>
<wgt id='1696'> +7.0198621e+04 </wgt>
<wgt id='1697'> +7.0574861e+04 </wgt>
<wgt id='1698'> +7.1880451e+04 </wgt>
<wgt id='1699'> +7.1526002e+04 </wgt>
<wgt id='1700'> +7.0424692e+04 </wgt>
<wgt id='1701'> +7.0359825e+04 </wgt>
<wgt id='1702'> +7.2259788e+04 </wgt>
<wgt id='1703'> +7.0874801e+04 </wgt>
<wgt id='1704'> +7.1502437e+04 </wgt>
<wgt id='1705'> +7.1313915e+04 </wgt>
<wgt id='1706'> +7.0910723e+04 </wgt>
<wgt id='1707'> +6.9140643e+04 </wgt>
<wgt id='1708'> +7.2363048e+04 </wgt>
<wgt id='1709'> +7.0247775e+04 </wgt>
<wgt id='1710'> +7.2171120e+04 </wgt>
<wgt id='1711'> +7.1150647e+04 </wgt>
<wgt id='1712'> +7.0949868e+04 </wgt>
<wgt id='1713'> +7.0193780e+04 </wgt>
<wgt id='1714'> +7.1466076e+04 </wgt>
<wgt id='1715'> +7.2313845e+04 </wgt>
<wgt id='1716'> +7.3273262e+04 </wgt>
<wgt id='1717'> +7.2233658e+04 </wgt>
<wgt id='1718'> +7.2264526e+04 </wgt>
<wgt id='1719'> +7.2194088e+04 </wgt>
<wgt id='1720'> +7.2249017e+04 </wgt>
<wgt id='1721'> +7.2219631e+04 </wgt>
<wgt id='1722'> +7.2233918e+04 </wgt>
<wgt id='1723'> +7.2233237e+04 </wgt>
<wgt id='1724'> +7.2308989e+04 </wgt>
<wgt id='1725'> +7.2172393e+04 </wgt>
<wgt id='1726'> +7.2303302e+04 </wgt>
<wgt id='1727'> +7.2161842e+04 </wgt>
<wgt id='1728'> +7.2373483e+04 </wgt>
<wgt id='1729'> +7.2098829e+04 </wgt>
<wgt id='1730'> +7.2117084e+04 </wgt>
<wgt id='1731'> +7.2316827e+04 </wgt>
<wgt id='1732'> +7.1959160e+04 </wgt>
<wgt id='1733'> +7.1959160e+04 </wgt>
<wgt id='1734'> +7.2669407e+04 </wgt>
<wgt id='1735'> +7.1938309e+04 </wgt>
<wgt id='1736'> +7.2616416e+04 </wgt>
<wgt id='1737'> +7.1710854e+04 </wgt>
<wgt id='1738'> +7.2371688e+04 </wgt>
<wgt id='1739'> +7.2014800e+04 </wgt>
<wgt id='1740'> +7.2074103e+04 </wgt>
<wgt id='1741'> +7.2616728e+04 </wgt>
<wgt id='1742'> +7.1737282e+04 </wgt>
<wgt id='1743'> +7.2799192e+04 </wgt>
<wgt id='1744'> +7.2231569e+04 </wgt>
<wgt id='1745'> +7.2238897e+04 </wgt>
<wgt id='1746'> +7.2243518e+04 </wgt>
<wgt id='1747'> +7.2222440e+04 </wgt>
<wgt id='1748'> +7.2318107e+04 </wgt>
<wgt id='1749'> +7.1939276e+04 </wgt>
<wgt id='1750'> +7.2298423e+04 </wgt>
<wgt id='1751'> +7.2164939e+04 </wgt>
<wgt id='1752'> +7.2224494e+04 </wgt>
<wgt id='1753'> +7.2249719e+04 </wgt>
<wgt id='1754'> +7.2284031e+04 </wgt>
<wgt id='1755'> +7.2208147e+04 </wgt>
<wgt id='1756'> +7.2373483e+04 </wgt>
<wgt id='1757'> +7.1909147e+04 </wgt>
<wgt id='1758'> +7.2417558e+04 </wgt>
<wgt id='1759'> +7.2024708e+04 </wgt>
<wgt id='1760'> +7.2137676e+04 </wgt>
<wgt id='1761'> +7.2399640e+04 </wgt>
<wgt id='1762'> +7.2154576e+04 </wgt>
<wgt id='1763'> +7.2013688e+04 </wgt>
<wgt id='1764'> +7.2223199e+04 </wgt>
<wgt id='1765'> +7.2287689e+04 </wgt>
<wgt id='1766'> +7.2236974e+04 </wgt>
<wgt id='1767'> +7.2240175e+04 </wgt>
<wgt id='1768'> +7.2331253e+04 </wgt>
<wgt id='1769'> +7.2122127e+04 </wgt>
<wgt id='1770'> +7.1945840e+04 </wgt>
<wgt id='1771'> +7.2335776e+04 </wgt>
<wgt id='1772'> +7.2336983e+04 </wgt>
<wgt id='1773'> +7.2282099e+04 </wgt>
<wgt id='1774'> +7.2096600e+04 </wgt>
<wgt id='1775'> +7.2327195e+04 </wgt>
<wgt id='1776'> +7.2278679e+04 </wgt>
<wgt id='1777'> +7.2230737e+04 </wgt>
<wgt id='1778'> +7.2398197e+04 </wgt>
<wgt id='1779'> +7.2176525e+04 </wgt>
<wgt id='1780'> +7.2432067e+04 </wgt>
<wgt id='1781'> +7.2218182e+04 </wgt>
<wgt id='1782'> +7.2233658e+04 </wgt>
<wgt id='1783'> +7.2270384e+04 </wgt>
<wgt id='1784'> +7.2763786e+04 </wgt>
<wgt id='1785'> +7.3152166e+04 </wgt>
<wgt id='1786'> +7.3364237e+04 </wgt>
<wgt id='1787'> +7.2804925e+04 </wgt>
<wgt id='1788'> +7.2569200e+04 </wgt>
<wgt id='1789'> +7.2769804e+04 </wgt>
<wgt id='1790'> +7.3012849e+04 </wgt>
<wgt id='1791'> +7.2757685e+04 </wgt>
<wgt id='1792'> +7.1538216e+04 </wgt>
<wgt id='1793'> +7.3121911e+04 </wgt>
<wgt id='1794'> +7.2220694e+04 </wgt>
<wgt id='1795'> +7.2856499e+04 </wgt>
<wgt id='1796'> +7.2910146e+04 </wgt>
<wgt id='1797'> +7.2621523e+04 </wgt>
<wgt id='1798'> +7.2896899e+04 </wgt>
<wgt id='1799'> +7.3133948e+04 </wgt>
<wgt id='1800'> +7.2754491e+04 </wgt>
<wgt id='1801'> +7.2733002e+04 </wgt>
<wgt id='1802'> +7.2741816e+04 </wgt>
<wgt id='1803'> +7.2743626e+04 </wgt>
<wgt id='1804'> +7.2942001e+04 </wgt>
<wgt id='1805'> +7.2803315e+04 </wgt>
<wgt id='1806'> +7.2670156e+04 </wgt>
<wgt id='1807'> +7.2760500e+04 </wgt>
<wgt id='1808'> +7.2800106e+04 </wgt>
<wgt id='1809'> +7.2900386e+04 </wgt>
<wgt id='1810'> +7.2810795e+04 </wgt>
<wgt id='1811'> +7.2812260e+04 </wgt>
<wgt id='1812'> +7.2688067e+04 </wgt>
<wgt id='1813'> +7.2761574e+04 </wgt>
<wgt id='1814'> +7.3357350e+04 </wgt>
<wgt id='1815'> +7.2654709e+04 </wgt>
<wgt id='1816'> +7.2793981e+04 </wgt>
<wgt id='1817'> +7.2686247e+04 </wgt>
<wgt id='1818'> +7.2890401e+04 </wgt>
<wgt id='1819'> +7.2768685e+04 </wgt>
<wgt id='1820'> +7.2942066e+04 </wgt>
<wgt id='1821'> +7.2784261e+04 </wgt>
<wgt id='1822'> +7.2759169e+04 </wgt>
<wgt id='1823'> +7.2953640e+04 </wgt>
<wgt id='1824'> +7.2725037e+04 </wgt>
<wgt id='1825'> +7.2399770e+04 </wgt>
<wgt id='1826'> +7.3580684e+04 </wgt>
<wgt id='1827'> +7.3911641e+04 </wgt>
<wgt id='1828'> +7.3838449e+04 </wgt>
<wgt id='1829'> +7.3973138e+04 </wgt>
<wgt id='1830'> +7.4055094e+04 </wgt>
<wgt id='1831'> +7.3756760e+04 </wgt>
<wgt id='1832'> +7.4095534e+04 </wgt>
<wgt id='1833'> +7.3716703e+04 </wgt>
<wgt id='1834'> +7.4247455e+04 </wgt>
<wgt id='1835'> +7.3572521e+04 </wgt>
<wgt id='1836'> +7.3878668e+04 </wgt>
<wgt id='1837'> +7.3936010e+04 </wgt>
<wgt id='1838'> +7.4098493e+04 </wgt>
<wgt id='1839'> +7.3714050e+04 </wgt>
<wgt id='1840'> +7.3692103e+04 </wgt>
<wgt id='1841'> +7.4121338e+04 </wgt>
<wgt id='1842'> +7.3844384e+04 </wgt>
<wgt id='1843'> +7.3973096e+04 </wgt>
<wgt id='1844'> +7.3840939e+04 </wgt>
<wgt id='1845'> +7.3955130e+04 </wgt>
<wgt id='1846'> +7.3808760e+04 </wgt>
<wgt id='1847'> +7.3997028e+04 </wgt>
<wgt id='1848'> +7.3368826e+04 </wgt>
<wgt id='1849'> +7.4330747e+04 </wgt>
<wgt id='1850'> +7.3818601e+04 </wgt>
<wgt id='1851'> +7.3979384e+04 </wgt>
<wgt id='1852'> +7.3565190e+04 </wgt>
<wgt id='1853'> +7.4048718e+04 </wgt>
<wgt id='1854'> +7.3851004e+04 </wgt>
<wgt id='1855'> +7.4051492e+04 </wgt>
<wgt id='1856'> +7.4974511e+04 </wgt>
<wgt id='1857'> +7.4954523e+04 </wgt>
<wgt id='1858'> +7.5002313e+04 </wgt>
<wgt id='1859'> +7.4981253e+04 </wgt>
<wgt id='1860'> +7.4971626e+04 </wgt>
<wgt id='1861'> +7.4745387e+04 </wgt>
<wgt id='1862'> +7.4926143e+04 </wgt>
<wgt id='1863'> +7.4867435e+04 </wgt>
<wgt id='1864'> +7.5125617e+04 </wgt>
<wgt id='1865'> +7.5293830e+04 </wgt>
<wgt id='1866'> +7.4976524e+04 </wgt>
<wgt id='1867'> +7.4948119e+04 </wgt>
<wgt id='1868'> +7.4889164e+04 </wgt>
<wgt id='1869'> +7.4752477e+04 </wgt>
<wgt id='1870'> +7.4905354e+04 </wgt>
<wgt id='1871'> +7.4865886e+04 </wgt>
<wgt id='1872'> +7.5023860e+04 </wgt>
<wgt id='1873'> +7.5003819e+04 </wgt>
<wgt id='1874'> +7.4985750e+04 </wgt>
<wgt id='1875'> +7.5089284e+04 </wgt>
<wgt id='1876'> +7.4742225e+04 </wgt>
<wgt id='1877'> +7.4960444e+04 </wgt>
<wgt id='1878'> +7.4512431e+04 </wgt>
<wgt id='1879'> +7.5045484e+04 </wgt>
<wgt id='1880'> +7.5093627e+04 </wgt>
<wgt id='1881'> +7.5218987e+04 </wgt>
<wgt id='1882'> +7.5154820e+04 </wgt>
<wgt id='1883'> +7.4847774e+04 </wgt>
<wgt id='1884'> +7.5056996e+04 </wgt>
<wgt id='1885'> +7.4498402e+04 </wgt>
<wgt id='1886'> +6.2391676e+04 </wgt>
<wgt id='1887'> +7.0525847e+04 </wgt>
<wgt id='1888'> +6.6176527e+04 </wgt>
<wgt id='1889'> +7.2241180e+04 </wgt>
</rwgt>
</event>
<event npLO=" -1 " npNLO=" 0 ">
 5      1 +7.4519530e+04 3.69581450e+01 7.55820760e-03 1.16902620e-01
        3 -1    0    0  501    0 +0.0000000000e+00 +0.0000000000e+00 +3.8602292936e+02 3.8602292936e+02 0.0000000000e+00 0.0000e+00 -1.0000e+00
       -4 -1    0    0    0  501 +0.0000000000e+00 +0.0000000000e+00 -4.2902552114e+00 4.2902552114e+00 0.0000000000e+00 0.0000e+00 1.0000e+00
      -24  2    1    2    0    0 +0.0000000000e+00 +0.0000000000e+00 +3.8173267415e+02 3.9031318457e+02 8.1391323478e+01 0.0000e+00 0.0000e+00
       15  1    3    3    0    0 +2.8502205465e+01 -2.3493623298e+01 +2.7265467624e+02 2.7515096993e+02 1.7770000000e+00 0.0000e+00 -1.0000e+00
      -16  1    3    3    0    0 -2.8502205465e+01 +2.3493623298e+01 +1.0907799791e+02 1.1516221464e+02 0.0000000000e+00 0.0000e+00 1.0000e+00
#aMCatNLO 1  0  0  2  2 0.22896948E+03 0.00000000E+00 -9  5  0 0.00000000E+00 0.00000000E+00 0.00000000E+00 0.00000000E+00 0.00000000E+00
<rwgt>
<wgt id='1001'> +7.4519530e+04 </wgt>
<wgt id='1002'> +7.4577871e+04 </wgt>
<wgt id='1003'> +7.4446870e+04 </wgt>
<wgt id='1004'> +8.5595032e+04 </wgt>
<wgt id='1005'> +8.5729790e+04 </wgt>
<wgt id='1006'> +8.5427197e+04 </wgt>
<wgt id='1007'> +6.2305682e+04 </wgt>
<wgt id='1008'> +6.2305939e+04 </wgt>
<wgt id='1009'> +6.2305362e+04 </wgt>
<wgt id='1010'> +7.4519530e+04 </wgt>
<wgt id='1011'> +7.4242586e+04 </wgt>
<wgt id='1012'> +7.4750763e+04 </wgt>
<wgt id='1013'> +7.3803847e+04 </wgt>
<wgt id='1014'> +7.3818176e+04 </wgt>
<wgt id='1015'> +7.4554671e+04 </wgt>
<wgt id='1016'> +7.4715911e+04 </wgt>
<wgt id='1017'> +7.4850763e+04 </wgt>
<wgt id='1018'> +7.5329383e+04 </wgt>
<wgt id='1019'> +7.3628266e+04 </wgt>
<wgt id='1020'> +7.4066050e+04 </wgt>
<wgt id='1021'> +7.3637151e+04 </wgt>
<wgt id='1022'> +7.4769661e+04 </wgt>
<wgt id='1023'> +7.4035291e+04 </wgt>
<wgt id='1024'> +7.3741060e+04 </wgt>
<wgt id='1025'> +7.2970707e+04 </wgt>
<wgt id='1026'> +7.4660172e+04 </wgt>
<wgt id='1027'> +7.3735999e+04 </wgt>
<wgt id='1028'> +7.5747192e+04 </wgt>
<wgt id='1029'> +7.4386572e+04 </wgt>
<wgt id='1030'> +7.5802773e+04 </wgt>
<wgt id='1031'> +7.4958430e+04 </wgt>
<wgt id='1032'> +7.4617534e+04 </wgt>
<wgt id='1033'> +7.4596438e+04 </wgt>
<wgt id='1034'> +7.5508591e+04 </wgt>
<wgt id='1035'> +7.4958507e+04 </wgt>
<wgt id='1036'> +7.5080313e+04 </wgt>
<wgt id='1037'> +7.3286151e+04 </wgt>
<wgt id='1038'> +7.4947050e+04 </wgt>
<wgt id='1039'> +7.3561771e+04 </wgt>
<wgt id='1040'> +7.3716717e+04 </wgt>
<wgt id='1041'> +7.3231350e+04 </wgt>
<wgt id='1042'> +7.4999454e+04 </wgt>
<wgt id='1043'> +7.3765665e+04 </wgt>
<wgt id='1044'> +7.5064973e+04 </wgt>
<wgt id='1045'> +7.4998427e+04 </wgt>
<wgt id='1046'> +7.3772878e+04 </wgt>
<wgt id='1047'> +7.3894139e+04 </wgt>
<wgt id='1048'> +7.4638863e+04 </wgt>
<wgt id='1049'> +7.3812014e+04 </wgt>
<wgt id='1050'> +7.4442893e+04 </wgt>
<wgt id='1051'> +7.4336680e+04 </wgt>
<wgt id='1052'> +7.3640498e+04 </wgt>
<wgt id='1053'> +7.4686034e+04 </wgt>
<wgt id='1054'> +7.5403637e+04 </wgt>
<wgt id='1055'> +7.4422736e+04 </wgt>
<wgt id='1056'> +7.3899120e+04 </wgt>
<wgt id='1057'> +7.5246783e+04 </wgt>
<wgt id='1058'> +7.3742185e+04 </wgt>
<wgt id='1059'> +7.5469960e+04 </wgt>
<wgt id='1060'> +7.4612195e+04 </wgt>
<wgt id='1061'> +7.4684826e+04 </wgt>
<wgt id='1062'> +7.4537982e+04 </wgt>
<wgt id='1063'> +7.3791718e+04 </wgt>
<wgt id='1064'> +7.4414819e+04 </wgt>
<wgt id='1065'> +7.4566576e+04 </wgt>
<wgt id='1066'> +7.4708927e+04 </wgt>
<wgt id='1067'> +7.4646735e+04 </wgt>
<wgt id='1068'> +7.3869601e+04 </wgt>
<wgt id='1069'> +7.4797948e+04 </wgt>
<wgt id='1070'> +7.4520128e+04 </wgt>
<wgt id='1071'> +7.4072619e+04 </wgt>
<wgt id='1072'> +7.4914646e+04 </wgt>
<wgt id='1073'> +7.4998006e+04 </wgt>
<wgt id='1074'> +7.5276583e+04 </wgt>
<wgt id='1075'> +7.3453980e+04 </wgt>
<wgt id='1076'> +7.4275221e+04 </wgt>
<wgt id='1077'> +7.4598273e+04 </wgt>
<wgt id='1078'> +7.4636210e+04 </wgt>
<wgt id='1079'> +7.4861374e+04 </wgt>
<wgt id='1080'> +7.4331176e+04 </wgt>
<wgt id='1081'> +7.4759272e+04 </wgt>
<wgt id='1082'> +7.4146789e+04 </wgt>
<wgt id='1083'> +7.4833888e+04 </wgt>
<wgt id='1084'> +7.4155827e+04 </wgt>
<wgt id='1085'> +7.4795114e+04 </wgt>
<wgt id='1086'> +7.4857989e+04 </wgt>
<wgt id='1087'> +7.4905634e+04 </wgt>
<wgt id='1088'> +7.4830363e+04 </wgt>
<wgt id='1089'> +7.4549161e+04 </wgt>
<wgt id='1090'> +7.4498937e+04 </wgt>
<wgt id='1091'> +7.4443113e+04 </wgt>
<wgt id='1092'> +7.4627838e+04 </wgt>
<wgt id='1093'> +7.4541945e+04 </wgt>
<wgt id='1094'> +7.4765704e+04 </wgt>
<wgt id='1095'> +7.4719514e+04 </wgt>
<wgt id='1096'> +7.4430848e+04 </wgt>
<wgt id='1097'> +7.4409086e+04 </wgt>
<wgt id='1098'> +7.4517408e+04 </wgt>
<wgt id='1099'> +7.4462477e+04 </wgt>
<wgt id='1100'> +7.4251978e+04 </wgt>
<wgt id='1101'> +7.4388121e+04 </wgt>
<wgt id='1102'> +7.4443261e+04 </wgt>
<wgt id='1103'> +7.4599509e+04 </wgt>
<wgt id='1104'> +7.4502381e+04 </wgt>
<wgt id='1105'> +7.4650200e+04 </wgt>
<wgt id='1106'> +7.4453569e+04 </wgt>
<wgt id='1107'> +7.4626616e+04 </wgt>
<wgt id='1108'> +7.4561301e+04 </wgt>
<wgt id='1109'> +7.4629215e+04 </wgt>
<wgt id='1110'> +7.4519530e+04 </wgt>
<wgt id='1111'> +7.4451752e+04 </wgt>
<wgt id='1112'> +7.6417294e+04 </wgt>
<wgt id='1113'> +7.4519530e+04 </wgt>
<wgt id='1114'> +5.6534097e+04 </wgt>
<wgt id='1115'> +7.6298630e+04 </wgt>
<wgt id='1116'> +6.5485112e+04 </wgt>
<wgt id='1117'> +7.6017888e+04 </wgt>
<wgt id='1118'> +7.0261467e+04 </wgt>
<wgt id='1119'> +7.4772279e+04 </wgt>
<wgt id='1120'> +7.4337801e+04 </wgt>
<wgt id='1121'> +7.4646562e+04 </wgt>
<wgt id='1122'> +7.3337105e+04 </wgt>
<wgt id='1123'> +7.3211752e+04 </wgt>
<wgt id='1124'> +6.8429066e+04 </wgt>
<wgt id='1125'> +7.9266338e+04 </wgt>
<wgt id='1126'> +8.0705118e+04 </wgt>
<wgt id='1127'> +6.5605249e+04 </wgt>
<wgt id='1128'> +6.9266128e+04 </wgt>
<wgt id='1129'> +7.2093475e+04 </wgt>
<wgt id='1130'> +6.9124108e+04 </wgt>
<wgt id='1131'> +6.9338820e+04 </wgt>
<wgt id='1132'> +7.9053818e+04 </wgt>
<wgt id='1133'> +8.4830024e+04 </wgt>
<wgt id='1134'> +7.5852931e+04 </wgt>
<wgt id='1135'> +7.5060748e+04 </wgt>
<wgt id='1136'> +7.6842732e+04 </wgt>
<wgt id='1137'> +7.6334540e+04 </wgt>
<wgt id='1138'> +7.7917441e+04 </wgt>
<wgt id='1139'> +7.0354122e+04 </wgt>
<wgt id='1140'> +7.8114695e+04 </wgt>
<wgt id='1141'> +7.2894184e+04 </wgt>
<wgt id='1142'> +7.5305064e+04 </wgt>
<wgt id='1143'> +7.1981783e+04 </wgt>
<wgt id='1144'> +6.9583284e+04 </wgt>
<wgt id='1145'> +7.4015519e+04 </wgt>
<wgt id='1146'> +7.1456646e+04 </wgt>
<wgt id='1147'> +7.0871325e+04 </wgt>
<wgt id='1148'> +6.9696359e+04 </wgt>
<wgt id='1149'> +7.2305773e+04 </wgt>
<wgt id='1150'> +7.4981858e+04 </wgt>
<wgt id='1151'> +7.6616856e+04 </wgt>
<wgt id='1152'> +7.4833043e+04 </wgt>
<wgt id='1153'> +7.7101738e+04 </wgt>
<wgt id='1154'> +7.5557582e+04 </wgt>
<wgt id='1155'> +7.3357043e+04 </wgt>
<wgt id='1156'> +7.3772011e+04 </wgt>
<wgt id='1157'> +7.6664650e+04 </wgt>
<wgt id='1158'> +7.6070391e+04 </wgt>
<wgt id='1159'> +7.4504144e+04 </wgt>
<wgt id='1160'> +7.7893299e+04 </wgt>
<wgt id='1161'> +6.3987643e+04 </wgt>
<wgt id='1162'> +7.4156096e+04 </wgt>
<wgt id='1163'> +7.7478435e+04 </wgt>
<wgt id='1164'> +7.3410268e+04 </wgt>
<wgt id='1165'> +8.1762049e+04 </wgt>
<wgt id='1166'> +7.2460119e+04 </wgt>
<wgt id='1167'> +7.5701627e+04 </wgt>
<wgt id='1168'> +6.8166675e+04 </wgt>
<wgt id='1169'> +7.4407827e+04 </wgt>
<wgt id='1170'> +7.4669508e+04 </wgt>
<wgt id='1171'> +7.4873578e+04 </wgt>
<wgt id='1172'> +7.5085779e+04 </wgt>
<wgt id='1173'> +7.2200193e+04 </wgt>
<wgt id='1174'> +7.3883118e+04 </wgt>
<wgt id='1175'> +7.2408862e+04 </wgt>
<wgt id='1176'> +7.6289922e+04 </wgt>
<wgt id='1177'> +7.0852317e+04 </wgt>
<wgt id='1178'> +7.4230155e+04 </wgt>
<wgt id='1179'> +6.7987100e+04 </wgt>
<wgt id='1180'> +7.4302116e+04 </wgt>
<wgt id='1181'> +8.0739779e+04 </wgt>
<wgt id='1182'> +8.0787855e+04 </wgt>
<wgt id='1183'> +7.7646414e+04 </wgt>
<wgt id='1184'> +7.5798983e+04 </wgt>
<wgt id='1185'> +7.6190682e+04 </wgt>
<wgt id='1186'> +9.0901601e+04 </wgt>
<wgt id='1187'> +8.5204886e+04 </wgt>
<wgt id='1188'> +7.6196989e+04 </wgt>
<wgt id='1189'> +7.5695947e+04 </wgt>
<wgt id='1190'> +7.8905147e+04 </wgt>
<wgt id='1191'> +7.8923456e+04 </wgt>
<wgt id='1192'> +7.6703597e+04 </wgt>
<wgt id='1193'> +6.9383230e+04 </wgt>
<wgt id='1194'> +7.6639670e+04 </wgt>
<wgt id='1195'> +7.2093475e+04 </wgt>
<wgt id='1196'> +8.6380433e+04 </wgt>
<wgt id='1197'> +7.1723697e+04 </wgt>
<wgt id='1198'> +7.4856985e+04 </wgt>
<wgt id='1199'> +5.6305223e+04 </wgt>
<wgt id='1200'> +7.4345130e+04 </wgt>
<wgt id='1201'> +6.8735302e+04 </wgt>
<wgt id='1202'> +9.3954822e+04 </wgt>
<wgt id='1203'> +7.9548123e+04 </wgt>
<wgt id='1204'> +7.1942049e+04 </wgt>
<wgt id='1205'> +7.7900843e+04 </wgt>
<wgt id='1206'> +7.6507047e+04 </wgt>
<wgt id='1207'> +7.2012922e+04 </wgt>
<wgt id='1208'> +6.8535221e+04 </wgt>
<wgt id='1209'> +7.2417787e+04 </wgt>
<wgt id='1210'> +7.1380611e+04 </wgt>
<wgt id='1211'> +7.9617486e+04 </wgt>
<wgt id='1212'> +7.8893262e+04 </wgt>
<wgt id='1213'> +7.3588855e+04 </wgt>
<wgt id='1214'> +7.4935500e+04 </wgt>
<wgt id='1215'> +6.7037494e+04 </wgt>
<wgt id='1216'> +6.8560759e+04 </wgt>
<wgt id='1217'> +7.0507140e+04 </wgt>
<wgt id='1218'> +7.1116402e+04 </wgt>
<wgt id='1219'> +7.4684691e+04 </wgt>
<wgt id='1220'> +7.5220963e+04 </wgt>
<wgt id='1221'> +7.8099928e+04 </wgt>
<wgt id='1222'> +8.0011093e+04 </wgt>
<wgt id='1223'> +7.2074265e+04 </wgt>
<wgt id='1224'> +7.1897618e+04 </wgt>
<wgt id='1225'> +7.2206081e+04 </wgt>
<wgt id='1226'> +7.1727635e+04 </wgt>
<wgt id='1227'> +7.1556345e+04 </wgt>
<wgt id='1228'> +7.1576442e+04 </wgt>
<wgt id='1229'> +7.2181616e+04 </wgt>
<wgt id='1230'> +7.1940851e+04 </wgt>
<wgt id='1231'> +7.2621251e+04 </wgt>
<wgt id='1232'> +7.1923145e+04 </wgt>
<wgt id='1233'> +7.2799330e+04 </wgt>
<wgt id='1234'> +7.2348006e+04 </wgt>
<wgt id='1235'> +7.1856967e+04 </wgt>
<wgt id='1236'> +7.2039600e+04 </wgt>
<wgt id='1237'> +7.1765362e+04 </wgt>
<wgt id='1238'> +7.2955399e+04 </wgt>
<wgt id='1239'> +7.2120968e+04 </wgt>
<wgt id='1240'> +7.2276308e+04 </wgt>
<wgt id='1241'> +7.1585895e+04 </wgt>
<wgt id='1242'> +7.1857585e+04 </wgt>
<wgt id='1243'> +7.2500709e+04 </wgt>
<wgt id='1244'> +7.1256811e+04 </wgt>
<wgt id='1245'> +7.1907590e+04 </wgt>
<wgt id='1246'> +7.1643007e+04 </wgt>
<wgt id='1247'> +7.1749047e+04 </wgt>
<wgt id='1248'> +7.2869736e+04 </wgt>
<wgt id='1249'> +7.2330943e+04 </wgt>
<wgt id='1250'> +7.1757849e+04 </wgt>
<wgt id='1251'> +7.2273604e+04 </wgt>
<wgt id='1252'> +7.1027193e+04 </wgt>
<wgt id='1253'> +7.2054202e+04 </wgt>
<wgt id='1254'> +7.2487850e+04 </wgt>
<wgt id='1255'> +7.2055024e+04 </wgt>
<wgt id='1256'> +7.2204172e+04 </wgt>
<wgt id='1257'> +7.1910874e+04 </wgt>
<wgt id='1258'> +7.1890566e+04 </wgt>
<wgt id='1259'> +7.1950157e+04 </wgt>
<wgt id='1260'> +7.2224102e+04 </wgt>
<wgt id='1261'> +7.2029287e+04 </wgt>
<wgt id='1262'> +7.1742132e+04 </wgt>
<wgt id='1263'> +7.2132416e+04 </wgt>
<wgt id='1264'> +7.1806998e+04 </wgt>
<wgt id='1265'> +7.2904622e+04 </wgt>
<wgt id='1266'> +7.2689983e+04 </wgt>
<wgt id='1267'> +7.2203815e+04 </wgt>
<wgt id='1268'> +7.2682633e+04 </wgt>
<wgt id='1269'> +7.1435496e+04 </wgt>
<wgt id='1270'> +7.1167530e+04 </wgt>
<wgt id='1271'> +7.1880530e+04 </wgt>
<wgt id='1272'> +7.2482946e+04 </wgt>
<wgt id='1273'> +7.1346580e+04 </wgt>
<wgt id='1274'> +7.1624438e+04 </wgt>
<wgt id='1275'> +7.2363389e+04 </wgt>
<wgt id='1276'> +7.2429257e+04 </wgt>
<wgt id='1277'> +7.1836763e+04 </wgt>
<wgt id='1278'> +7.1522361e+04 </wgt>
<wgt id='1279'> +7.3543181e+04 </wgt>
<wgt id='1280'> +7.1930850e+04 </wgt>
<wgt id='1281'> +7.2678353e+04 </wgt>
<wgt id='1282'> +7.1997895e+04 </wgt>
<wgt id='1283'> +7.1982074e+04 </wgt>
<wgt id='1284'> +7.1797107e+04 </wgt>
<wgt id='1285'> +7.2337662e+04 </wgt>
<wgt id='1286'> +7.2010663e+04 </wgt>
<wgt id='1287'> +7.1989902e+04 </wgt>
<wgt id='1288'> +7.2326485e+04 </wgt>
<wgt id='1289'> +7.2035687e+04 </wgt>
<wgt id='1290'> +7.1663722e+04 </wgt>
<wgt id='1291'> +7.1683948e+04 </wgt>
<wgt id='1292'> +7.1839768e+04 </wgt>
<wgt id='1293'> +7.1653556e+04 </wgt>
<wgt id='1294'> +7.1664974e+04 </wgt>
<wgt id='1295'> +7.2151911e+04 </wgt>
<wgt id='1296'> +7.2214574e+04 </wgt>
<wgt id='1297'> +7.2791285e+04 </wgt>
<wgt id='1298'> +7.1904144e+04 </wgt>
<wgt id='1299'> +7.1648697e+04 </wgt>
<wgt id='1300'> +7.2212535e+04 </wgt>
<wgt id='1301'> +7.1996528e+04 </wgt>
<wgt id='1302'> +7.2421993e+04 </wgt>
<wgt id='1303'> +7.2025530e+04 </wgt>
<wgt id='1304'> +7.2545901e+04 </wgt>
<wgt id='1305'> +7.1779558e+04 </wgt>
<wgt id='1306'> +7.2310869e+04 </wgt>
<wgt id='1307'> +7.1835823e+04 </wgt>
<wgt id='1308'> +7.2197700e+04 </wgt>
<wgt id='1309'> +7.1917437e+04 </wgt>
<wgt id='1310'> +7.2331056e+04 </wgt>
<wgt id='1311'> +7.1715150e+04 </wgt>
<wgt id='1312'> +7.2383655e+04 </wgt>
<wgt id='1313'> +7.2100662e+04 </wgt>
<wgt id='1314'> +7.2091878e+04 </wgt>
<wgt id='1315'> +7.2266792e+04 </wgt>
<wgt id='1316'> +7.1697433e+04 </wgt>
<wgt id='1317'> +7.2320772e+04 </wgt>
<wgt id='1318'> +7.2434493e+04 </wgt>
<wgt id='1319'> +7.1959692e+04 </wgt>
<wgt id='1320'> +7.2066441e+04 </wgt>
<wgt id='1321'> +7.2064324e+04 </wgt>
<wgt id='1322'> +7.1924612e+04 </wgt>
<wgt id='1323'> +7.2299863e+04 </wgt>
<wgt id='1324'> +7.1382898e+04 </wgt>
<wgt id='1325'> +7.3803588e+04 </wgt>
<wgt id='1326'> +6.9880569e+04 </wgt>
<wgt id='1327'> +7.2129232e+04 </wgt>
<wgt id='1328'> +8.6430348e+04 </wgt>
<wgt id='1329'> +8.8065737e+04 </wgt>
<wgt id='1330'> +8.6356421e+04 </wgt>
<wgt id='1331'> +8.7239125e+04 </wgt>
<wgt id='1332'> +8.0649635e+04 </wgt>
<wgt id='1333'> +8.3731502e+04 </wgt>
<wgt id='1334'> +8.5971567e+04 </wgt>
<wgt id='1335'> +9.1608581e+04 </wgt>
<wgt id='1336'> +8.3964983e+04 </wgt>
<wgt id='1337'> +8.5450749e+04 </wgt>
<wgt id='1338'> +9.2164043e+04 </wgt>
<wgt id='1339'> +8.5482114e+04 </wgt>
<wgt id='1340'> +8.8233328e+04 </wgt>
<wgt id='1341'> +9.1319889e+04 </wgt>
<wgt id='1342'> +7.7940134e+04 </wgt>
<wgt id='1343'> +8.9190809e+04 </wgt>
<wgt id='1344'> +8.5093214e+04 </wgt>
<wgt id='1345'> +8.3466401e+04 </wgt>
<wgt id='1346'> +7.7499651e+04 </wgt>
<wgt id='1347'> +8.3141284e+04 </wgt>
<wgt id='1348'> +9.5273425e+04 </wgt>
<wgt id='1349'> +8.2593977e+04 </wgt>
<wgt id='1350'> +8.0702891e+04 </wgt>
<wgt id='1351'> +8.8856819e+04 </wgt>
<wgt id='1352'> +8.1705787e+04 </wgt>
<wgt id='1353'> +7.9997124e+04 </wgt>
<wgt id='1354'> +9.3098590e+04 </wgt>
<wgt id='1355'> +8.3318909e+04 </wgt>
<wgt id='1356'> +8.2158686e+04 </wgt>
<wgt id='1357'> +8.7659086e+04 </wgt>
<wgt id='1358'> +8.6795775e+04 </wgt>
<wgt id='1359'> +8.8117757e+04 </wgt>
<wgt id='1360'> +7.7859740e+04 </wgt>
<wgt id='1361'> +8.1348214e+04 </wgt>
<wgt id='1362'> +8.8035416e+04 </wgt>
<wgt id='1363'> +8.9311498e+04 </wgt>
<wgt id='1364'> +8.9251475e+04 </wgt>
<wgt id='1365'> +8.1636740e+04 </wgt>
<wgt id='1366'> +8.2355816e+04 </wgt>
<wgt id='1367'> +8.6420181e+04 </wgt>
<wgt id='1368'> +9.4243098e+04 </wgt>
<wgt id='1369'> +7.8617663e+04 </wgt>
<wgt id='1370'> +9.8396635e+04 </wgt>
<wgt id='1371'> +8.6638094e+04 </wgt>
<wgt id='1372'> +8.0365943e+04 </wgt>
<wgt id='1373'> +8.8526859e+04 </wgt>
<wgt id='1374'> +8.8460875e+04 </wgt>
<wgt id='1375'> +9.0270016e+04 </wgt>
<wgt id='1376'> +9.0333444e+04 </wgt>
<wgt id='1377'> +8.3606229e+04 </wgt>
<wgt id='1378'> +8.6322211e+04 </wgt>
<wgt id='1379'> +8.6918760e+04 </wgt>
<wgt id='1380'> +8.7751079e+04 </wgt>
<wgt id='1381'> +8.4416065e+04 </wgt>
<wgt id='1382'> +9.3031840e+04 </wgt>
<wgt id='1383'> +9.0605972e+04 </wgt>
<wgt id='1384'> +8.5997408e+04 </wgt>
<wgt id='1385'> +1.0418524e+05 </wgt>
<wgt id='1386'> +8.4324240e+04 </wgt>
<wgt id='1387'> +8.2009603e+04 </wgt>
<wgt id='1388'> +8.2601933e+04 </wgt>
<wgt id='1389'> +8.8884010e+04 </wgt>
<wgt id='1390'> +8.9738295e+04 </wgt>
<wgt id='1391'> +9.1217556e+04 </wgt>
<wgt id='1392'> +9.2469074e+04 </wgt>
<wgt id='1393'> +8.7293319e+04 </wgt>
<wgt id='1394'> +8.1636740e+04 </wgt>
<wgt id='1395'> +8.8471191e+04 </wgt>
<wgt id='1396'> +8.1984252e+04 </wgt>
<wgt id='1397'> +8.6674353e+04 </wgt>
<wgt id='1398'> +8.3149349e+04 </wgt>
<wgt id='1399'> +8.9229224e+04 </wgt>
<wgt id='1400'> +8.9931410e+04 </wgt>
<wgt id='1401'> +9.2335876e+04 </wgt>
<wgt id='1402'> +8.7921419e+04 </wgt>
<wgt id='1403'> +7.6337819e+04 </wgt>
<wgt id='1404'> +8.8159883e+04 </wgt>
<wgt id='1405'> +8.9638612e+04 </wgt>
<wgt id='1406'> +8.8468616e+04 </wgt>
<wgt id='1407'> +8.2447620e+04 </wgt>
<wgt id='1408'> +8.2250015e+04 </wgt>
<wgt id='1409'> +8.4946764e+04 </wgt>
<wgt id='1410'> +8.3200259e+04 </wgt>
<wgt id='1411'> +8.3950186e+04 </wgt>
<wgt id='1412'> +8.8318015e+04 </wgt>
<wgt id='1413'> +8.4873883e+04 </wgt>
<wgt id='1414'> +9.4466665e+04 </wgt>
<wgt id='1415'> +8.2055695e+04 </wgt>
<wgt id='1416'> +9.3531063e+04 </wgt>
<wgt id='1417'> +8.6157113e+04 </wgt>
<wgt id='1418'> +8.3603197e+04 </wgt>
<wgt id='1419'> +9.1208087e+04 </wgt>
<wgt id='1420'> +8.6632592e+04 </wgt>
<wgt id='1421'> +8.5751892e+04 </wgt>
<wgt id='1422'> +8.5195097e+04 </wgt>
<wgt id='1423'> +8.2002041e+04 </wgt>
<wgt id='1424'> +8.1465264e+04 </wgt>
<wgt id='1425'> +8.5038144e+04 </wgt>
<wgt id='1426'> +9.2189362e+04 </wgt>
<wgt id='1427'> +8.9505282e+04 </wgt>
<wgt id='1428'> +7.9581861e+04 </wgt>
<wgt id='1429'> +8.5457160e+04 </wgt>
<wgt id='1430'> +8.8040027e+04 </wgt>
<wgt id='1431'> +8.6405462e+04 </wgt>
<wgt id='1432'> +8.6721098e+04 </wgt>
<wgt id='1433'> +8.6371451e+04 </wgt>
<wgt id='1434'> +8.6296089e+04 </wgt>
<wgt id='1435'> +8.6922311e+04 </wgt>
<wgt id='1436'> +8.7964934e+04 </wgt>
<wgt id='1437'> +8.5845060e+04 </wgt>
<wgt id='1438'> +8.6300487e+04 </wgt>
<wgt id='1439'> +8.7535400e+04 </wgt>
<wgt id='1440'> +8.6855290e+04 </wgt>
<wgt id='1441'> +8.7075379e+04 </wgt>
<wgt id='1442'> +8.8213553e+04 </wgt>
<wgt id='1443'> +8.6705205e+04 </wgt>
<wgt id='1444'> +8.7331848e+04 </wgt>
<wgt id='1445'> +8.9367889e+04 </wgt>
<wgt id='1446'> +8.6502573e+04 </wgt>
<wgt id='1447'> +8.6820283e+04 </wgt>
<wgt id='1448'> +8.6242858e+04 </wgt>
<wgt id='1449'> +8.6612994e+04 </wgt>
<wgt id='1450'> +8.5503419e+04 </wgt>
<wgt id='1451'> +8.6976592e+04 </wgt>
<wgt id='1452'> +8.6004269e+04 </wgt>
<wgt id='1453'> +8.6489034e+04 </wgt>
<wgt id='1454'> +8.6833422e+04 </wgt>
<wgt id='1455'> +8.7135633e+04 </wgt>
<wgt id='1456'> +8.6240440e+04 </wgt>
<wgt id='1457'> +8.6700023e+04 </wgt>
<wgt id='1458'> +8.6305625e+04 </wgt>
<wgt id='1459'> +8.7008601e+04 </wgt>
<wgt id='1460'> +8.6436953e+04 </wgt>
<wgt id='1461'> +8.6215028e+04 </wgt>
<wgt id='1462'> +8.6677269e+04 </wgt>
<wgt id='1463'> +8.5823874e+04 </wgt>
<wgt id='1464'> +8.6276189e+04 </wgt>
<wgt id='1465'> +8.5990760e+04 </wgt>
<wgt id='1466'> +8.6343449e+04 </wgt>
<wgt id='1467'> +8.6384034e+04 </wgt>
<wgt id='1468'> +8.6429907e+04 </wgt>
<wgt id='1469'> +8.6376931e+04 </wgt>
<wgt id='1470'> +8.6308304e+04 </wgt>
<wgt id='1471'> +8.6369108e+04 </wgt>
<wgt id='1472'> +8.6667954e+04 </wgt>
<wgt id='1473'> +8.6485239e+04 </wgt>
<wgt id='1474'> +8.6256405e+04 </wgt>
<wgt id='1475'> +8.6694904e+04 </wgt>
<wgt id='1476'> +8.6563344e+04 </wgt>
<wgt id='1477'> +8.6358154e+04 </wgt>
<wgt id='1478'> +8.6516888e+04 </wgt>
<wgt id='1479'> +8.6492894e+04 </wgt>
<wgt id='1480'> +8.6299722e+04 </wgt>
<wgt id='1481'> +8.6433423e+04 </wgt>
<wgt id='1482'> +8.5457160e+04 </wgt>
<wgt id='1483'> +8.8040027e+04 </wgt>
<wgt id='1484'> +8.9437015e+04 </wgt>
<wgt id='1485'> +9.1784144e+04 </wgt>
<wgt id='1486'> +8.9012429e+04 </wgt>
<wgt id='1487'> +8.5935210e+04 </wgt>
<wgt id='1488'> +8.4626215e+04 </wgt>
<wgt id='1489'> +9.2910457e+04 </wgt>
<wgt id='1490'> +9.2120042e+04 </wgt>
<wgt id='1491'> +9.1677798e+04 </wgt>
<wgt id='1492'> +9.2633494e+04 </wgt>
<wgt id='1493'> +8.2415634e+04 </wgt>
<wgt id='1494'> +8.5173901e+04 </wgt>
<wgt id='1495'> +9.2912910e+04 </wgt>
<wgt id='1496'> +9.6289094e+04 </wgt>
<wgt id='1497'> +9.5722737e+04 </wgt>
<wgt id='1498'> +8.3968199e+04 </wgt>
<wgt id='1499'> +8.2302612e+04 </wgt>
<wgt id='1500'> +8.9980683e+04 </wgt>
<wgt id='1501'> +8.8521938e+04 </wgt>
<wgt id='1502'> +9.2202222e+04 </wgt>
<wgt id='1503'> +9.2194323e+04 </wgt>
<wgt id='1504'> +8.9323946e+04 </wgt>
<wgt id='1505'> +8.5248514e+04 </wgt>
<wgt id='1506'> +9.1035006e+04 </wgt>
<wgt id='1507'> +9.0120100e+04 </wgt>
<wgt id='1508'> +8.8509598e+04 </wgt>
<wgt id='1509'> +8.5152839e+04 </wgt>
<wgt id='1510'> +7.7336731e+04 </wgt>
<wgt id='1511'> +8.0306630e+04 </wgt>
<wgt id='1512'> +8.1196895e+04 </wgt>
<wgt id='1513'> +8.9180484e+04 </wgt>
<wgt id='1514'> +9.0948773e+04 </wgt>
<wgt id='1515'> +9.0964167e+04 </wgt>
<wgt id='1516'> +8.1802657e+04 </wgt>
<wgt id='1517'> +8.9251777e+04 </wgt>
<wgt id='1518'> +8.6618739e+04 </wgt>
<wgt id='1519'> +8.9986920e+04 </wgt>
<wgt id='1520'> +8.3571514e+04 </wgt>
<wgt id='1521'> +8.9018584e+04 </wgt>
<wgt id='1522'> +8.8754544e+04 </wgt>
<wgt id='1523'> +9.1357974e+04 </wgt>
<wgt id='1524'> +9.1098261e+04 </wgt>
<wgt id='1525'> +9.1655462e+04 </wgt>
<wgt id='1526'> +9.1352278e+04 </wgt>
<wgt id='1527'> +9.2624146e+04 </wgt>
<wgt id='1528'> +8.9932596e+04 </wgt>
<wgt id='1529'> +9.4477876e+04 </wgt>
<wgt id='1530'> +9.4282290e+04 </wgt>
<wgt id='1531'> +8.6374914e+04 </wgt>
<wgt id='1532'> +8.0371451e+04 </wgt>
<wgt id='1533'> +8.2912582e+04 </wgt>
<wgt id='1534'> +9.0287052e+04 </wgt>
<wgt id='1535'> +8.4198894e+04 </wgt>
<wgt id='1536'> +9.6949362e+04 </wgt>
<wgt id='1537'> +8.7190959e+04 </wgt>
<wgt id='1538'> +9.9376340e+04 </wgt>
<wgt id='1539'> +8.9127808e+04 </wgt>
<wgt id='1540'> +9.1413092e+04 </wgt>
<wgt id='1541'> +8.8338146e+04 </wgt>
<wgt id='1542'> +9.6286815e+04 </wgt>
<wgt id='1543'> +8.5764816e+04 </wgt>
<wgt id='1544'> +9.4187647e+04 </wgt>
<wgt id='1545'> +8.8615188e+04 </wgt>
<wgt id='1546'> +9.3111361e+04 </wgt>
<wgt id='1547'> +9.4103647e+04 </wgt>
<wgt id='1548'> +8.6425299e+04 </wgt>
<wgt id='1549'> +8.8884762e+04 </wgt>
<wgt id='1550'> +8.3459866e+04 </wgt>
<wgt id='1551'> +8.8822895e+04 </wgt>
<wgt id='1552'> +9.0177062e+04 </wgt>
<wgt id='1553'> +8.6621230e+04 </wgt>
<wgt id='1554'> +8.6819503e+04 </wgt>
<wgt id='1555'> +9.6006031e+04 </wgt>
<wgt id='1556'> +1.0399556e+05 </wgt>
<wgt id='1557'> +8.7296131e+04 </wgt>
<wgt id='1558'> +9.1941711e+04 </wgt>
<wgt id='1559'> +8.4487922e+04 </wgt>
<wgt id='1560'> +8.1291580e+04 </wgt>
<wgt id='1561'> +8.8650216e+04 </wgt>
<wgt id='1562'> +8.6708607e+04 </wgt>
<wgt id='1563'> +8.6773243e+04 </wgt>
<wgt id='1564'> +8.9741136e+04 </wgt>
<wgt id='1565'> +8.0204680e+04 </wgt>
<wgt id='1566'> +9.3339498e+04 </wgt>
<wgt id='1567'> +8.9407854e+04 </wgt>
<wgt id='1568'> +8.9731869e+04 </wgt>
<wgt id='1569'> +9.4433896e+04 </wgt>
<wgt id='1570'> +9.1156168e+04 </wgt>
<wgt id='1571'> +9.9116625e+04 </wgt>
<wgt id='1572'> +9.0436679e+04 </wgt>
<wgt id='1573'> +9.3115495e+04 </wgt>
<wgt id='1574'> +9.5030424e+04 </wgt>
<wgt id='1575'> +8.9002884e+04 </wgt>
<wgt id='1576'> +9.2681453e+04 </wgt>
<wgt id='1577'> +9.4106457e+04 </wgt>
<wgt id='1578'> +8.7226065e+04 </wgt>
<wgt id='1579'> +9.0772969e+04 </wgt>
<wgt id='1580'> +9.4723217e+04 </wgt>
<wgt id='1581'> +8.4770897e+04 </wgt>
<wgt id='1582'> +8.8196885e+04 </wgt>
<wgt id='1583'> +8.7274031e+04 </wgt>
<wgt id='1584'> +9.4113785e+04 </wgt>
<wgt id='1585'> +8.5302421e+04 </wgt>
<wgt id='1586'> +1.0488886e+05 </wgt>
<wgt id='1587'> +8.3727436e+04 </wgt>
<wgt id='1588'> +8.5457160e+04 </wgt>
<wgt id='1589'> +8.6871357e+04 </wgt>
<wgt id='1590'> +8.7534445e+04 </wgt>
<wgt id='1591'> +8.8040027e+04 </wgt>
<wgt id='1592'> +8.8903970e+04 </wgt>
<wgt id='1593'> +7.0890411e+04 </wgt>
<wgt id='1594'> +7.0026977e+04 </wgt>
<wgt id='1595'> +7.0376841e+04 </wgt>
<wgt id='1596'> +7.4951221e+04 </wgt>
<wgt id='1597'> +6.7458160e+04 </wgt>
<wgt id='1598'> +7.1827432e+04 </wgt>
<wgt id='1599'> +6.9227107e+04 </wgt>
<wgt id='1600'> +7.0929629e+04 </wgt>
<wgt id='1601'> +7.0221026e+04 </wgt>
<wgt id='1602'> +7.2867554e+04 </wgt>
<wgt id='1603'> +6.9699915e+04 </wgt>
<wgt id='1604'> +7.1671181e+04 </wgt>
<wgt id='1605'> +6.8869577e+04 </wgt>
<wgt id='1606'> +7.3908296e+04 </wgt>
<wgt id='1607'> +6.8204554e+04 </wgt>
<wgt id='1608'> +6.8649862e+04 </wgt>
<wgt id='1609'> +7.2273431e+04 </wgt>
<wgt id='1610'> +6.5170725e+04 </wgt>
<wgt id='1611'> +7.7223363e+04 </wgt>
<wgt id='1612'> +6.6412872e+04 </wgt>
<wgt id='1613'> +7.8784799e+04 </wgt>
<wgt id='1614'> +7.1142253e+04 </wgt>
<wgt id='1615'> +7.0179642e+04 </wgt>
<wgt id='1616'> +6.7424968e+04 </wgt>
<wgt id='1617'> +7.3791769e+04 </wgt>
<wgt id='1618'> +7.1408188e+04 </wgt>
<wgt id='1619'> +6.9270020e+04 </wgt>
<wgt id='1620'> +7.2477601e+04 </wgt>
<wgt id='1621'> +6.8422827e+04 </wgt>
<wgt id='1622'> +6.9637714e+04 </wgt>
<wgt id='1623'> +7.1381266e+04 </wgt>
<wgt id='1624'> +7.1520334e+04 </wgt>
<wgt id='1625'> +6.8701296e+04 </wgt>
<wgt id='1626'> +7.2622482e+04 </wgt>
<wgt id='1627'> +6.7999557e+04 </wgt>
<wgt id='1628'> +7.2099275e+04 </wgt>
<wgt id='1629'> +6.9559030e+04 </wgt>
<wgt id='1630'> +6.5965853e+04 </wgt>
<wgt id='1631'> +7.6192430e+04 </wgt>
<wgt id='1632'> +6.7886380e+04 </wgt>
<wgt id='1633'> +7.2833251e+04 </wgt>
<wgt id='1634'> +6.5733445e+04 </wgt>
<wgt id='1635'> +7.6238946e+04 </wgt>
<wgt id='1636'> +7.1863177e+04 </wgt>
<wgt id='1637'> +6.9425796e+04 </wgt>
<wgt id='1638'> +6.9996299e+04 </wgt>
<wgt id='1639'> +7.1459644e+04 </wgt>
<wgt id='1640'> +7.3124609e+04 </wgt>
<wgt id='1641'> +6.7119395e+04 </wgt>
<wgt id='1642'> +6.7509082e+04 </wgt>
<wgt id='1643'> +7.1846115e+04 </wgt>
<wgt id='1644'> +6.6680321e+04 </wgt>
<wgt id='1645'> +7.5223461e+04 </wgt>
<wgt id='1646'> +6.8629890e+04 </wgt>
<wgt id='1647'> +7.3876023e+04 </wgt>
<wgt id='1648'> +6.9598328e+04 </wgt>
<wgt id='1649'> +7.2341465e+04 </wgt>
<wgt id='1650'> +7.1650015e+04 </wgt>
<wgt id='1651'> +6.9653154e+04 </wgt>
<wgt id='1652'> +6.8991339e+04 </wgt>
<wgt id='1653'> +6.9947735e+04 </wgt>
<wgt id='1654'> +7.1816694e+04 </wgt>
<wgt id='1655'> +7.2734844e+04 </wgt>
<wgt id='1656'> +7.5306829e+04 </wgt>
<wgt id='1657'> +7.4831922e+04 </wgt>
<wgt id='1658'> +7.4632374e+04 </wgt>
<wgt id='1659'> +7.3326246e+04 </wgt>
<wgt id='1660'> +7.6682257e+04 </wgt>
<wgt id='1661'> +7.4962694e+04 </wgt>
<wgt id='1662'> +7.5820237e+04 </wgt>
<wgt id='1663'> +7.4949477e+04 </wgt>
<wgt id='1664'> +7.4500083e+04 </wgt>
<wgt id='1665'> +7.5631439e+04 </wgt>
<wgt id='1666'> +7.4736957e+04 </wgt>
<wgt id='1667'> +7.1220184e+04 </wgt>
<wgt id='1668'> +7.8733380e+04 </wgt>
<wgt id='1669'> +7.0887173e+04 </wgt>
<wgt id='1670'> +8.1358296e+04 </wgt>
<wgt id='1671'> +7.3502682e+04 </wgt>
<wgt id='1672'> +7.9198207e+04 </wgt>
<wgt id='1673'> +7.8986091e+04 </wgt>
<wgt id='1674'> +7.3094706e+04 </wgt>
<wgt id='1675'> +7.4504601e+04 </wgt>
<wgt id='1676'> +7.6347285e+04 </wgt>
<wgt id='1677'> +7.9561861e+04 </wgt>
<wgt id='1678'> +7.1764067e+04 </wgt>
<wgt id='1679'> +8.0540829e+04 </wgt>
<wgt id='1680'> +7.0788796e+04 </wgt>
<wgt id='1681'> +7.8655073e+04 </wgt>
<wgt id='1682'> +7.2036903e+04 </wgt>
<wgt id='1683'> +7.5786626e+04 </wgt>
<wgt id='1684'> +7.4890246e+04 </wgt>
<wgt id='1685'> +7.5472200e+04 </wgt>
<wgt id='1686'> +7.4946990e+04 </wgt>
<wgt id='1687'> +7.1021443e+04 </wgt>
<wgt id='1688'> +8.2147704e+04 </wgt>
<wgt id='1689'> +7.5043340e+04 </wgt>
<wgt id='1690'> +7.5822650e+04 </wgt>
<wgt id='1691'> +7.1678946e+04 </wgt>
<wgt id='1692'> +7.9557161e+04 </wgt>
<wgt id='1693'> +7.3443622e+04 </wgt>
<wgt id='1694'> +7.6514781e+04 </wgt>
<wgt id='1695'> +7.3630404e+04 </wgt>
<wgt id='1696'> +7.6563736e+04 </wgt>
<wgt id='1697'> +7.5504976e+04 </wgt>
<wgt id='1698'> +7.5030940e+04 </wgt>
<wgt id='1699'> +7.9394359e+04 </wgt>
<wgt id='1700'> +6.9932852e+04 </wgt>
<wgt id='1701'> +7.6923178e+04 </wgt>
<wgt id='1702'> +7.3423051e+04 </wgt>
<wgt id='1703'> +7.9198124e+04 </wgt>
<wgt id='1704'> +7.2400791e+04 </wgt>
<wgt id='1705'> +7.4370475e+04 </wgt>
<wgt id='1706'> +7.6573595e+04 </wgt>
<wgt id='1707'> +7.5942379e+04 </wgt>
<wgt id='1708'> +7.4732063e+04 </wgt>
<wgt id='1709'> +7.3080000e+04 </wgt>
<wgt id='1710'> +7.7364852e+04 </wgt>
<wgt id='1711'> +7.1612053e+04 </wgt>
<wgt id='1712'> +7.7519236e+04 </wgt>
<wgt id='1713'> +7.5456013e+04 </wgt>
<wgt id='1714'> +7.4558855e+04 </wgt>
<wgt id='1715'> +7.7562377e+04 </wgt>
<wgt id='1716'> +7.1286622e+04 </wgt>
<wgt id='1717'> +8.1875820e+04 </wgt>
<wgt id='1718'> +8.2584945e+04 </wgt>
<wgt id='1719'> +8.0967426e+04 </wgt>
<wgt id='1720'> +8.1852772e+04 </wgt>
<wgt id='1721'> +8.1896867e+04 </wgt>
<wgt id='1722'> +8.0774688e+04 </wgt>
<wgt id='1723'> +8.3677526e+04 </wgt>
<wgt id='1724'> +7.9958304e+04 </wgt>
<wgt id='1725'> +8.3431639e+04 </wgt>
<wgt id='1726'> +8.0797585e+04 </wgt>
<wgt id='1727'> +8.2987651e+04 </wgt>
<wgt id='1728'> +8.2676534e+04 </wgt>
<wgt id='1729'> +8.1103487e+04 </wgt>
<wgt id='1730'> +8.0933425e+04 </wgt>
<wgt id='1731'> +8.2550363e+04 </wgt>
<wgt id='1732'> +8.1705800e+04 </wgt>
<wgt id='1733'> +8.1705800e+04 </wgt>
<wgt id='1734'> +8.1547262e+04 </wgt>
<wgt id='1735'> +8.2098304e+04 </wgt>
<wgt id='1736'> +8.1713425e+04 </wgt>
<wgt id='1737'> +8.2094867e+04 </wgt>
<wgt id='1738'> +8.1971947e+04 </wgt>
<wgt id='1739'> +8.1712112e+04 </wgt>
<wgt id='1740'> +8.1365049e+04 </wgt>
<wgt id='1741'> +8.3104751e+04 </wgt>
<wgt id='1742'> +8.2624831e+04 </wgt>
<wgt id='1743'> +8.1031305e+04 </wgt>
<wgt id='1744'> +8.1168015e+04 </wgt>
<wgt id='1745'> +8.3785057e+04 </wgt>
<wgt id='1746'> +8.2106905e+04 </wgt>
<wgt id='1747'> +8.1735161e+04 </wgt>
<wgt id='1748'> +8.1808909e+04 </wgt>
<wgt id='1749'> +8.2001865e+04 </wgt>
<wgt id='1750'> +8.1852013e+04 </wgt>
<wgt id='1751'> +8.1901820e+04 </wgt>
<wgt id='1752'> +8.1684962e+04 </wgt>
<wgt id='1753'> +8.2142095e+04 </wgt>
<wgt id='1754'> +8.1528125e+04 </wgt>
<wgt id='1755'> +8.2068568e+04 </wgt>
<wgt id='1756'> +8.2625589e+04 </wgt>
<wgt id='1757'> +7.9970246e+04 </wgt>
<wgt id='1758'> +8.1014101e+04 </wgt>
<wgt id='1759'> +8.2540140e+04 </wgt>
<wgt id='1760'> +8.1740959e+04 </wgt>
<wgt id='1761'> +8.2115227e+04 </wgt>
<wgt id='1762'> +8.2025396e+04 </wgt>
<wgt id='1763'> +8.1281917e+04 </wgt>
<wgt id='1764'> +8.1987724e+04 </wgt>
<wgt id='1765'> +8.1377344e+04 </wgt>
<wgt id='1766'> +8.1698598e+04 </wgt>
<wgt id='1767'> +8.2243060e+04 </wgt>
<wgt id='1768'> +8.2058330e+04 </wgt>
<wgt id='1769'> +8.1752186e+04 </wgt>
<wgt id='1770'> +8.1787927e+04 </wgt>
<wgt id='1771'> +8.2183990e+04 </wgt>
<wgt id='1772'> +8.2127648e+04 </wgt>
<wgt id='1773'> +8.1848666e+04 </wgt>
<wgt id='1774'> +8.6252275e+04 </wgt>
<wgt id='1775'> +7.9085400e+04 </wgt>
<wgt id='1776'> +8.4113324e+04 </wgt>
<wgt id='1777'> +8.0544268e+04 </wgt>
<wgt id='1778'> +8.3056526e+04 </wgt>
<wgt id='1779'> +8.1342628e+04 </wgt>
<wgt id='1780'> +7.9277236e+04 </wgt>
<wgt id='1781'> +8.1819544e+04 </wgt>
<wgt id='1782'> +8.1875820e+04 </wgt>
<wgt id='1783'> +8.1554387e+04 </wgt>
<wgt id='1784'> +7.8863516e+04 </wgt>
<wgt id='1785'> +8.0288359e+04 </wgt>
<wgt id='1786'> +8.4143614e+04 </wgt>
<wgt id='1787'> +7.9040568e+04 </wgt>
<wgt id='1788'> +7.8833476e+04 </wgt>
<wgt id='1789'> +7.8814967e+04 </wgt>
<wgt id='1790'> +7.9765071e+04 </wgt>
<wgt id='1791'> +7.9263235e+04 </wgt>
<wgt id='1792'> +8.0049902e+04 </wgt>
<wgt id='1793'> +7.9562359e+04 </wgt>
<wgt id='1794'> +7.8227057e+04 </wgt>
<wgt id='1795'> +7.8868167e+04 </wgt>
<wgt id='1796'> +7.9568666e+04 </wgt>
<wgt id='1797'> +7.7356444e+04 </wgt>
<wgt id='1798'> +7.9076962e+04 </wgt>
<wgt id='1799'> +7.9215432e+04 </wgt>
<wgt id='1800'> +7.4306119e+04 </wgt>
<wgt id='1801'> +7.9058466e+04 </wgt>
<wgt id='1802'> +7.8491232e+04 </wgt>
<wgt id='1803'> +7.7417895e+04 </wgt>
<wgt id='1804'> +7.9380657e+04 </wgt>
<wgt id='1805'> +7.9601635e+04 </wgt>
<wgt id='1806'> +7.7681880e+04 </wgt>
<wgt id='1807'> +7.9215902e+04 </wgt>
<wgt id='1808'> +7.8586431e+04 </wgt>
<wgt id='1809'> +7.9770428e+04 </wgt>
<wgt id='1810'> +7.9565257e+04 </wgt>
<wgt id='1811'> +7.9568020e+04 </wgt>
<wgt id='1812'> +8.0417880e+04 </wgt>
<wgt id='1813'> +8.4073210e+04 </wgt>
<wgt id='1814'> +7.9458279e+04 </wgt>
<wgt id='1815'> +7.8528873e+04 </wgt>
<wgt id='1816'> +7.9570947e+04 </wgt>
<wgt id='1817'> +7.8719699e+04 </wgt>
<wgt id='1818'> +7.9030218e+04 </wgt>
<wgt id='1819'> +7.8604353e+04 </wgt>
<wgt id='1820'> +7.8901697e+04 </wgt>
<wgt id='1821'> +7.9017249e+04 </wgt>
<wgt id='1822'> +7.9170218e+04 </wgt>
<wgt id='1823'> +7.9075904e+04 </wgt>
<wgt id='1824'> +7.7787366e+04 </wgt>
<wgt id='1825'> +7.8132231e+04 </wgt>
<wgt id='1826'> +7.9724313e+04 </wgt>
<wgt id='1827'> +7.6379308e+04 </wgt>
<wgt id='1828'> +7.6427266e+04 </wgt>
<wgt id='1829'> +7.6295622e+04 </wgt>
<wgt id='1830'> +7.6444396e+04 </wgt>
<wgt id='1831'> +7.6277046e+04 </wgt>
<wgt id='1832'> +7.6529728e+04 </wgt>
<wgt id='1833'> +7.6193345e+04 </wgt>
<wgt id='1834'> +7.5947154e+04 </wgt>
<wgt id='1835'> +7.6766417e+04 </wgt>
<wgt id='1836'> +7.6572311e+04 </wgt>
<wgt id='1837'> +7.6141755e+04 </wgt>
<wgt id='1838'> +7.6503545e+04 </wgt>
<wgt id='1839'> +7.6219430e+04 </wgt>
<wgt id='1840'> +7.6237508e+04 </wgt>
<wgt id='1841'> +7.6494586e+04 </wgt>
<wgt id='1842'> +7.6507512e+04 </wgt>
<wgt id='1843'> +7.6478539e+04 </wgt>
<wgt id='1844'> +7.6331893e+04 </wgt>
<wgt id='1845'> +7.6371948e+04 </wgt>
<wgt id='1846'> +7.6324947e+04 </wgt>
<wgt id='1847'> +7.6389311e+04 </wgt>
<wgt id='1848'> +7.6800006e+04 </wgt>
<wgt id='1849'> +7.5795441e+04 </wgt>
<wgt id='1850'> +7.7751881e+04 </wgt>
<wgt id='1851'> +7.5055327e+04 </wgt>
<wgt id='1852'> +7.9509809e+04 </wgt>
<wgt id='1853'> +7.3470033e+04 </wgt>
<wgt id='1854'> +7.8672270e+04 </wgt>
<wgt id='1855'> +7.4371860e+04 </wgt>
<wgt id='1856'> +7.9403431e+04 </wgt>
<wgt id='1857'> +7.9384477e+04 </wgt>
<wgt id='1858'> +7.9399295e+04 </wgt>
<wgt id='1859'> +7.9321371e+04 </wgt>
<wgt id='1860'> +7.9409653e+04 </wgt>
<wgt id='1861'> +7.9819770e+04 </wgt>
<wgt id='1862'> +7.9875905e+04 </wgt>
<wgt id='1863'> +7.8564461e+04 </wgt>
<wgt id='1864'> +7.9597352e+04 </wgt>
<wgt id='1865'> +7.9366704e+04 </wgt>
<wgt id='1866'> +7.9156839e+04 </wgt>
<wgt id='1867'> +7.9352272e+04 </wgt>
<wgt id='1868'> +7.9008645e+04 </wgt>
<wgt id='1869'> +7.9524886e+04 </wgt>
<wgt id='1870'> +7.8997574e+04 </wgt>
<wgt id='1871'> +7.9500992e+04 </wgt>
<wgt id='1872'> +7.9316702e+04 </wgt>
<wgt id='1873'> +7.9420779e+04 </wgt>
<wgt id='1874'> +7.9348091e+04 </wgt>
<wgt id='1875'> +7.9539114e+04 </wgt>
<wgt id='1876'> +7.9197824e+04 </wgt>
<wgt id='1877'> +7.9754826e+04 </wgt>
<wgt id='1878'> +7.9405450e+04 </wgt>
<wgt id='1879'> +7.9484089e+04 </wgt>
<wgt id='1880'> +7.9633701e+04 </wgt>
<wgt id='1881'> +7.9603862e+04 </wgt>
<wgt id='1882'> +7.9353796e+04 </wgt>
<wgt id='1883'> +7.9329263e+04 </wgt>
<wgt id='1884'> +7.9417839e+04 </wgt>
<wgt id='1885'> +7.8819534e+04 </wgt>
<wgt id='1886'> +3.1146403e+04 </wgt>
<wgt id='1887'> +4.1641814e+04 </wgt>
<wgt id='1888'> +4.9462170e+04 </wgt>
<wgt id='1889'> +5.5705342e+04 </wgt>
</rwgt>
</event>
<event npLO=" -1 " npNLO=" 0 ">
 5      1 +7.4519530e+04 3.00000000e+01 7.55820760e-03 1.18265290e-01
       -2 -1    0    0    0  501 +0.0000000000e+00 +0.0000000000e+00 +1.6828058922e+00 1.6828058922e+00 0.0000000000e+00 0.0000e+00 1.0000e+00
        1 -1    0    0  501    0 +0.0000000000e+00 +0.0000000000e+00 -1.1696843049e+03 1.1696843049e+03 0.0000000000e+00 0.0000e+00 -1.0000e+00
      -24  2    1    2    0    0 +0.0000000000e+00 +0.0000000000e+00 -1.1680014990e+03 1.1713671108e+03 8.8732218281e+01 0.0000e+00 0.0000e+00
       13  1    3    3    0    0 +5.0971869778e+00 +2.1515269910e+00 -1.1651123966e+03 1.1651255328e+03 0.0000000000e+00 0.0000e+00 -1.0000e+00
      -14  1    3    3    0    0 -5.0971869778e+00 -2.1515269910e+00 -2.8891023928e+00 6.2415780149e+00 0.0000000000e+00 0.0000e+00 1.0000e+00
#aMCatNLO 1  0  0  2  1 0.32947418E+02 0.00000000E+00 -9  5  0 0.00000000E+00 0.00000000E+00 0.00000000E+00 0.00000000E+00 0.00000000E+00
<rwgt>
<wgt id='1001'> +7.4519530e+04 </wgt>
<wgt id='1002'> +7.3415879e+04 </wgt>
<wgt id='1003'> +7.5889925e+04 </wgt>
<wgt id='1004'> +8.0166396e+04 </wgt>
<wgt id='1005'> +7.9022397e+04 </wgt>
<wgt id='1006'> +8.1586884e+04 </wgt>
<wgt id='1007'> +6.7949360e+04 </wgt>
<wgt id='1008'> +6.6906810e+04 </wgt>
<wgt id='1009'> +6.9243880e+04 </wgt>
<wgt id='1010'> +7.4519530e+04 </wgt>
<wgt id='1011'> +7.4887578e+04 </wgt>
<wgt id='1012'> +7.4708988e+04 </wgt>
<wgt id='1013'> +7.4189047e+04 </wgt>
<wgt id='1014'> +7.4606818e+04 </wgt>
<wgt id='1015'> +7.4269091e+04 </wgt>
<wgt id='1016'> +7.4319314e+04 </wgt>
<wgt id='1017'> +7.4266199e+04 </wgt>
<wgt id='1018'> +7.3992772e+04 </wgt>
<wgt id='1019'> +7.4500166e+04 </wgt>
<wgt id='1020'> +7.4501595e+04 </wgt>
<wgt id='1021'> +7.4565473e+04 </wgt>
<wgt id='1022'> +7.4500094e+04 </wgt>
<wgt id='1023'> +7.4574426e+04 </wgt>
<wgt id='1024'> +7.4288674e+04 </wgt>
<wgt id='1025'> +7.4363634e+04 </wgt>
<wgt id='1026'> +7.4269524e+04 </wgt>
<wgt id='1027'> +7.4670651e+04 </wgt>
<wgt id='1028'> +7.4419556e+04 </wgt>
<wgt id='1029'> +7.4750927e+04 </wgt>
<wgt id='1030'> +7.4449048e+04 </wgt>
<wgt id='1031'> +7.4709184e+04 </wgt>
<wgt id='1032'> +7.4596116e+04 </wgt>
<wgt id='1033'> +7.4193305e+04 </wgt>
<wgt id='1034'> +7.4812945e+04 </wgt>
<wgt id='1035'> +7.4652939e+04 </wgt>
<wgt id='1036'> +7.4522245e+04 </wgt>
<wgt id='1037'> +7.4373205e+04 </wgt>
<wgt id='1038'> +7.4739907e+04 </wgt>
<wgt id='1039'> +7.5060172e+04 </wgt>
<wgt id='1040'> +7.4338329e+04 </wgt>
<wgt id='1041'> +7.5324505e+04 </wgt>
<wgt id='1042'> +7.4738483e+04 </wgt>
<wgt id='1043'> +7.4763958e+04 </wgt>
<wgt id='1044'> +7.4761447e+04 </wgt>
<wgt id='1045'> +7.4469384e+04 </wgt>
<wgt id='1046'> +7.4030214e+04 </wgt>
<wgt id='1047'> +7.5134660e+04 </wgt>
<wgt id='1048'> +7.4328363e+04 </wgt>
<wgt id='1049'> +7.4425896e+04 </wgt>
<wgt id='1050'> +7.4542074e+04 </wgt>
<wgt id='1051'> +7.4670193e+04 </wgt>
<wgt id='1052'> +7.4517995e+04 </wgt>
<wgt id='1053'> +7.4444459e+04 </wgt>
<wgt id='1054'> +7.4510586e+04 </wgt>
<wgt id='1055'> +7.4771096e+04 </wgt>
<wgt id='1056'> +7.4514952e+04 </wgt>
<wgt id='1057'> +7.4650002e+04 </wgt>
<wgt id='1058'> +7.4519286e+04 </wgt>
<wgt id='1059'> +7.4347070e+04 </wgt>
<wgt id='1060'> +7.4276493e+04 </wgt>
<wgt id='1061'> +7.4400449e+04 </wgt>
<wgt id='1062'> +7.4349761e+04 </wgt>
<wgt id='1063'> +7.4653525e+04 </wgt>
<wgt id='1064'> +7.4456656e+04 </wgt>
<wgt id='1065'> +7.4734185e+04 </wgt>
<wgt id='1066'> +7.4231310e+04 </wgt>
<wgt id='1067'> +7.4480367e+04 </wgt>
<wgt id='1068'> +7.4758350e+04 </wgt>
<wgt id='1069'> +7.4433607e+04 </wgt>
<wgt id='1070'> +7.4456112e+04 </wgt>
<wgt id='1071'> +7.4710805e+04 </wgt>
<wgt id='1072'> +7.4718472e+04 </wgt>
<wgt id='1073'> +7.4532800e+04 </wgt>
<wgt id='1074'> +7.4583834e+04 </wgt>
<wgt id='1075'> +7.4433395e+04 </wgt>
<wgt id='1076'> +7.4389720e+04 </wgt>
<wgt id='1077'> +7.4510857e+04 </wgt>
<wgt id='1078'> +7.4688157e+04 </wgt>
<wgt id='1079'> +7.4594907e+04 </wgt>
<wgt id='1080'> +7.4427797e+04 </wgt>
<wgt id='1081'> +7.4620986e+04 </wgt>
<wgt id='1082'> +7.4502645e+04 </wgt>
<wgt id='1083'> +7.4497264e+04 </wgt>
<wgt id='1084'> +7.4626211e+04 </wgt>
<wgt id='1085'> +7.4350727e+04 </wgt>
<wgt id='1086'> +7.4476250e+04 </wgt>
<wgt id='1087'> +7.4622535e+04 </wgt>
<wgt id='1088'> +7.4553014e+04 </wgt>
<wgt id='1089'> +7.4422669e+04 </wgt>
<wgt id='1090'> +7.4517354e+04 </wgt>
<wgt id='1091'> +7.4496722e+04 </wgt>
<wgt id='1092'> +7.4545565e+04 </wgt>
<wgt id='1093'> +7.4500709e+04 </wgt>
<wgt id='1094'> +7.4511788e+04 </wgt>
<wgt id='1095'> +7.4526003e+04 </wgt>
<wgt id='1096'> +7.4560141e+04 </wgt>
<wgt id='1097'> +7.4548404e+04 </wgt>
<wgt id='1098'> +7.4592070e+04 </wgt>
<wgt id='1099'> +7.4504712e+04 </wgt>
<wgt id='1100'> +7.4492231e+04 </wgt>
<wgt id='1101'> +7.4505910e+04 </wgt>
<wgt id='1102'> +7.4551868e+04 </wgt>
<wgt id='1103'> +7.4506943e+04 </wgt>
<wgt id='1104'> +7.4570445e+04 </wgt>
<wgt id='1105'> +7.4501979e+04 </wgt>
<wgt id='1106'> +7.4508257e+04 </wgt>
<wgt id='1107'> +7.4503057e+04 </wgt>
<wgt id='1108'> +7.4491646e+04 </wgt>
<wgt id='1109'> +7.4524005e+04 </wgt>
<wgt id='1110'> +7.4519533e+04 </wgt>
<wgt id='1111'> +7.3662041e+04 </wgt>
<wgt id='1112'> +7.5021300e+04 </wgt>
<wgt id='1113'> +7.4519533e+04 </wgt>
<wgt id='1114'> +7.5148625e+04 </wgt>
<wgt id='1115'> +7.5620214e+04 </wgt>
<wgt id='1116'> +7.3939851e+04 </wgt>
<wgt id='1117'> +7.1021633e+04 </wgt>
<wgt id='1118'> +7.2803921e+04 </wgt>
<wgt id='1119'> +7.6282152e+04 </wgt>
<wgt id='1120'> +7.4539112e+04 </wgt>
<wgt id='1121'> +7.5706715e+04 </wgt>
<wgt id='1122'> +7.6221882e+04 </wgt>
<wgt id='1123'> +7.0236103e+04 </wgt>
<wgt id='1124'> +7.2543968e+04 </wgt>
<wgt id='1125'> +7.3600428e+04 </wgt>
<wgt id='1126'> +7.2823091e+04 </wgt>
<wgt id='1127'> +7.5836425e+04 </wgt>
<wgt id='1128'> +7.6728040e+04 </wgt>
<wgt id='1129'> +7.3553486e+04 </wgt>
<wgt id='1130'> +7.3114746e+04 </wgt>
<wgt id='1131'> +7.5209990e+04 </wgt>
<wgt id='1132'> +7.5505220e+04 </wgt>
<wgt id='1133'> +7.4442953e+04 </wgt>
<wgt id='1134'> +7.5839678e+04 </wgt>
<wgt id='1135'> +7.7851234e+04 </wgt>
<wgt id='1136'> +7.7242408e+04 </wgt>
<wgt id='1137'> +7.2478357e+04 </wgt>
<wgt id='1138'> +7.5782996e+04 </wgt>
<wgt id='1139'> +7.6174933e+04 </wgt>
<wgt id='1140'> +7.3538946e+04 </wgt>
<wgt id='1141'> +7.4965865e+04 </wgt>
<wgt id='1142'> +7.2181634e+04 </wgt>
<wgt id='1143'> +7.4897455e+04 </wgt>
<wgt id='1144'> +7.6170135e+04 </wgt>
<wgt id='1145'> +7.4253836e+04 </wgt>
<wgt id='1146'> +7.7781942e+04 </wgt>
<wgt id='1147'> +7.3701743e+04 </wgt>
<wgt id='1148'> +7.3787558e+04 </wgt>
<wgt id='1149'> +7.6560588e+04 </wgt>
<wgt id='1150'> +7.3010802e+04 </wgt>
<wgt id='1151'> +7.3037959e+04 </wgt>
<wgt id='1152'> +7.1897237e+04 </wgt>
<wgt id='1153'> +7.6635554e+04 </wgt>
<wgt id='1154'> +7.2610778e+04 </wgt>
<wgt id='1155'> +7.4808189e+04 </wgt>
<wgt id='1156'> +7.3856662e+04 </wgt>
<wgt id='1157'> +7.2477146e+04 </wgt>
<wgt id='1158'> +6.8652178e+04 </wgt>
<wgt id='1159'> +7.5006283e+04 </wgt>
<wgt id='1160'> +7.8219457e+04 </wgt>
<wgt id='1161'> +7.4609590e+04 </wgt>
<wgt id='1162'> +7.6185277e+04 </wgt>
<wgt id='1163'> +7.3656433e+04 </wgt>
<wgt id='1164'> +7.4212640e+04 </wgt>
<wgt id='1165'> +7.6281737e+04 </wgt>
<wgt id='1166'> +7.6308355e+04 </wgt>
<wgt id='1167'> +7.5936210e+04 </wgt>
<wgt id='1168'> +7.6112895e+04 </wgt>
<wgt id='1169'> +7.3131615e+04 </wgt>
<wgt id='1170'> +7.5210044e+04 </wgt>
<wgt id='1171'> +7.6434979e+04 </wgt>
<wgt id='1172'> +7.3742114e+04 </wgt>
<wgt id='1173'> +7.6062691e+04 </wgt>
<wgt id='1174'> +7.7276344e+04 </wgt>
<wgt id='1175'> +7.5791915e+04 </wgt>
<wgt id='1176'> +7.5094452e+04 </wgt>
<wgt id='1177'> +7.5557638e+04 </wgt>
<wgt id='1178'> +7.5596567e+04 </wgt>
<wgt id='1179'> +7.1992624e+04 </wgt>
<wgt id='1180'> +7.4050641e+04 </wgt>
<wgt id='1181'> +7.5835263e+04 </wgt>
<wgt id='1182'> +7.5590331e+04 </wgt>
<wgt id='1183'> +7.5859457e+04 </wgt>
<wgt id='1184'> +7.5192892e+04 </wgt>
<wgt id='1185'> +7.1870791e+04 </wgt>
<wgt id='1186'> +7.3819122e+04 </wgt>
<wgt id='1187'> +7.4795888e+04 </wgt>
<wgt id='1188'> +7.3019066e+04 </wgt>
<wgt id='1189'> +7.4076691e+04 </wgt>
<wgt id='1190'> +7.6761502e+04 </wgt>
<wgt id='1191'> +7.7047352e+04 </wgt>
<wgt id='1192'> +7.4886662e+04 </wgt>
<wgt id='1193'> +7.1351197e+04 </wgt>
<wgt id='1194'> +7.5882266e+04 </wgt>
<wgt id='1195'> +7.3553486e+04 </wgt>
<wgt id='1196'> +7.0427832e+04 </wgt>
<wgt id='1197'> +7.3488036e+04 </wgt>
<wgt id='1198'> +7.6483983e+04 </wgt>
<wgt id='1199'> +7.4944237e+04 </wgt>
<wgt id='1200'> +7.5668961e+04 </wgt>
<wgt id='1201'> +7.4621285e+04 </wgt>
<wgt id='1202'> +6.8327856e+04 </wgt>
<wgt id='1203'> +7.3852339e+04 </wgt>
<wgt id='1204'> +7.4976950e+04 </wgt>
<wgt id='1205'> +7.3166780e+04 </wgt>
<wgt id='1206'> +7.2696279e+04 </wgt>
<wgt id='1207'> +7.5651691e+04 </wgt>
<wgt id='1208'> +7.2547597e+04 </wgt>
<wgt id='1209'> +7.7046679e+04 </wgt>
<wgt id='1210'> +7.1096573e+04 </wgt>
<wgt id='1211'> +7.4399785e+04 </wgt>
<wgt id='1212'> +7.7957060e+04 </wgt>
<wgt id='1213'> +7.2965042e+04 </wgt>
<wgt id='1214'> +7.4444608e+04 </wgt>
<wgt id='1215'> +7.0622144e+04 </wgt>
<wgt id='1216'> +7.0864165e+04 </wgt>
<wgt id='1217'> +7.2037336e+04 </wgt>
<wgt id='1218'> +7.3217891e+04 </wgt>
<wgt id='1219'> +7.4092268e+04 </wgt>
<wgt id='1220'> +7.4859749e+04 </wgt>
<wgt id='1221'> +7.5986425e+04 </wgt>
<wgt id='1222'> +7.6313037e+04 </wgt>
<wgt id='1223'> +7.3115178e+04 </wgt>
<wgt id='1224'> +7.2785338e+04 </wgt>
<wgt id='1225'> +7.3541126e+04 </wgt>
<wgt id='1226'> +7.2801049e+04 </wgt>
<wgt id='1227'> +7.3430441e+04 </wgt>
<wgt id='1228'> +7.2949951e+04 </wgt>
<wgt id='1229'> +7.3028059e+04 </wgt>
<wgt id='1230'> +7.3178586e+04 </wgt>
<wgt id='1231'> +7.3034963e+04 </wgt>
<wgt id='1232'> +7.3295227e+04 </wgt>
<wgt id='1233'> +7.3094662e+04 </wgt>
<wgt id='1234'> +7.2979301e+04 </wgt>
<wgt id='1235'> +7.3113372e+04 </wgt>
<wgt id='1236'> +7.3216377e+04 </wgt>
<wgt id='1237'> +7.3164903e+04 </wgt>
<wgt id='1238'> +7.3041767e+04 </wgt>
<wgt id='1239'> +7.3036311e+04 </wgt>
<wgt id='1240'> +7.3076641e+04 </wgt>
<wgt id='1241'> +7.3272415e+04 </wgt>
<wgt id='1242'> +7.3199816e+04 </wgt>
<wgt id='1243'> +7.3069097e+04 </wgt>
<wgt id='1244'> +7.3158402e+04 </wgt>
<wgt id='1245'> +7.3149730e+04 </wgt>
<wgt id='1246'> +7.3151352e+04 </wgt>
<wgt id='1247'> +7.3203806e+04 </wgt>
<wgt id='1248'> +7.2908168e+04 </wgt>
<wgt id='1249'> +7.3063870e+04 </wgt>
<wgt id='1250'> +7.3030570e+04 </wgt>
<wgt id='1251'> +7.3361039e+04 </wgt>
<wgt id='1252'> +7.3423649e+04 </wgt>
<wgt id='1253'> +7.1994381e+04 </wgt>
<wgt id='1254'> +7.2871692e+04 </wgt>
<wgt id='1255'> +7.3363621e+04 </wgt>
<wgt id='1256'> +7.3194772e+04 </wgt>
<wgt id='1257'> +7.2969691e+04 </wgt>
<wgt id='1258'> +7.3371905e+04 </wgt>
<wgt id='1259'> +7.3132511e+04 </wgt>
<wgt id='1260'> +7.2904883e+04 </wgt>
<wgt id='1261'> +7.3050275e+04 </wgt>
<wgt id='1262'> +7.3187737e+04 </wgt>
<wgt id='1263'> +7.2940687e+04 </wgt>
<wgt id='1264'> +7.3395339e+04 </wgt>
<wgt id='1265'> +7.3126473e+04 </wgt>
<wgt id='1266'> +7.3144038e+04 </wgt>
<wgt id='1267'> +7.3188372e+04 </wgt>
<wgt id='1268'> +7.3256655e+04 </wgt>
<wgt id='1269'> +7.2962993e+04 </wgt>
<wgt id='1270'> +7.3076973e+04 </wgt>
<wgt id='1271'> +7.3383682e+04 </wgt>
<wgt id='1272'> +7.2815952e+04 </wgt>
<wgt id='1273'> +7.3048560e+04 </wgt>
<wgt id='1274'> +7.3574268e+04 </wgt>
<wgt id='1275'> +7.3174894e+04 </wgt>
<wgt id='1276'> +7.3411829e+04 </wgt>
<wgt id='1277'> +7.3390614e+04 </wgt>
<wgt id='1278'> +7.2968871e+04 </wgt>
<wgt id='1279'> +7.3256394e+04 </wgt>
<wgt id='1280'> +7.3014490e+04 </wgt>
<wgt id='1281'> +7.3118767e+04 </wgt>
<wgt id='1282'> +7.2928462e+04 </wgt>
<wgt id='1283'> +7.3369534e+04 </wgt>
<wgt id='1284'> +7.3169245e+04 </wgt>
<wgt id='1285'> +7.3273591e+04 </wgt>
<wgt id='1286'> +7.3063211e+04 </wgt>
<wgt id='1287'> +7.3316618e+04 </wgt>
<wgt id='1288'> +7.2961491e+04 </wgt>
<wgt id='1289'> +7.3019404e+04 </wgt>
<wgt id='1290'> +7.3177712e+04 </wgt>
<wgt id='1291'> +7.3012932e+04 </wgt>
<wgt id='1292'> +7.3062011e+04 </wgt>
<wgt id='1293'> +7.3235330e+04 </wgt>
<wgt id='1294'> +7.3247839e+04 </wgt>
<wgt id='1295'> +7.3191991e+04 </wgt>
<wgt id='1296'> +7.3179667e+04 </wgt>
<wgt id='1297'> +7.3026028e+04 </wgt>
<wgt id='1298'> +7.3051494e+04 </wgt>
<wgt id='1299'> +7.2999436e+04 </wgt>
<wgt id='1300'> +7.3191706e+04 </wgt>
<wgt id='1301'> +7.3040837e+04 </wgt>
<wgt id='1302'> +7.3111767e+04 </wgt>
<wgt id='1303'> +7.3087623e+04 </wgt>
<wgt id='1304'> +7.3115818e+04 </wgt>
<wgt id='1305'> +7.3205951e+04 </wgt>
<wgt id='1306'> +7.3112977e+04 </wgt>
<wgt id='1307'> +7.3148824e+04 </wgt>
<wgt id='1308'> +7.3126417e+04 </wgt>
<wgt id='1309'> +7.3128971e+04 </wgt>
<wgt id='1310'> +7.3049725e+04 </wgt>
<wgt id='1311'> +7.3210514e+04 </wgt>
<wgt id='1312'> +7.3201573e+04 </wgt>
<wgt id='1313'> +7.3070397e+04 </wgt>
<wgt id='1314'> +7.3163076e+04 </wgt>
<wgt id='1315'> +7.3110912e+04 </wgt>
<wgt id='1316'> +7.3160111e+04 </wgt>
<wgt id='1317'> +7.3127154e+04 </wgt>
<wgt id='1318'> +7.3225292e+04 </wgt>
<wgt id='1319'> +7.3103391e+04 </wgt>
<wgt id='1320'> +7.3156458e+04 </wgt>
<wgt id='1321'> +7.3072369e+04 </wgt>
<wgt id='1322'> +7.3165768e+04 </wgt>
<wgt id='1323'> +7.3101446e+04 </wgt>
<wgt id='1324'> +7.2375899e+04 </wgt>
<wgt id='1325'> +7.4144398e+04 </wgt>
<wgt id='1326'> +7.2824171e+04 </wgt>
<wgt id='1327'> +7.1133429e+04 </wgt>
<wgt id='1328'> +7.2608955e+04 </wgt>
<wgt id='1329'> +7.2512875e+04 </wgt>
<wgt id='1330'> +7.3548952e+04 </wgt>
<wgt id='1331'> +7.2737329e+04 </wgt>
<wgt id='1332'> +7.2707810e+04 </wgt>
<wgt id='1333'> +7.5404821e+04 </wgt>
<wgt id='1334'> +7.0234502e+04 </wgt>
<wgt id='1335'> +7.0835666e+04 </wgt>
<wgt id='1336'> +7.3700666e+04 </wgt>
<wgt id='1337'> +7.2482227e+04 </wgt>
<wgt id='1338'> +7.1906857e+04 </wgt>
<wgt id='1339'> +7.1056943e+04 </wgt>
<wgt id='1340'> +7.2899058e+04 </wgt>
<wgt id='1341'> +7.0444699e+04 </wgt>
<wgt id='1342'> +7.5166716e+04 </wgt>
<wgt id='1343'> +7.2312566e+04 </wgt>
<wgt id='1344'> +7.1085381e+04 </wgt>
<wgt id='1345'> +7.3855847e+04 </wgt>
<wgt id='1346'> +7.2079280e+04 </wgt>
<wgt id='1347'> +7.5450468e+04 </wgt>
<wgt id='1348'> +7.3685980e+04 </wgt>
<wgt id='1349'> +7.2922172e+04 </wgt>
<wgt id='1350'> +7.0248289e+04 </wgt>
<wgt id='1351'> +7.3136110e+04 </wgt>
<wgt id='1352'> +7.0400310e+04 </wgt>
<wgt id='1353'> +7.2597741e+04 </wgt>
<wgt id='1354'> +7.1727745e+04 </wgt>
<wgt id='1355'> +7.2877251e+04 </wgt>
<wgt id='1356'> +7.4345901e+04 </wgt>
<wgt id='1357'> +7.1418311e+04 </wgt>
<wgt id='1358'> +7.0714877e+04 </wgt>
<wgt id='1359'> +7.3608402e+04 </wgt>
<wgt id='1360'> +7.3411174e+04 </wgt>
<wgt id='1361'> +7.4481990e+04 </wgt>
<wgt id='1362'> +7.3932478e+04 </wgt>
<wgt id='1363'> +7.1058719e+04 </wgt>
<wgt id='1364'> +7.4238663e+04 </wgt>
<wgt id='1365'> +7.1494737e+04 </wgt>
<wgt id='1366'> +7.2993171e+04 </wgt>
<wgt id='1367'> +7.3884046e+04 </wgt>
<wgt id='1368'> +7.0492159e+04 </wgt>
<wgt id='1369'> +7.5265896e+04 </wgt>
<wgt id='1370'> +7.0655912e+04 </wgt>
<wgt id='1371'> +7.2081705e+04 </wgt>
<wgt id='1372'> +7.1542925e+04 </wgt>
<wgt id='1373'> +7.1790259e+04 </wgt>
<wgt id='1374'> +7.2905177e+04 </wgt>
<wgt id='1375'> +7.2354873e+04 </wgt>
<wgt id='1376'> +7.2093298e+04 </wgt>
<wgt id='1377'> +7.1626823e+04 </wgt>
<wgt id='1378'> +7.0563610e+04 </wgt>
<wgt id='1379'> +7.3701579e+04 </wgt>
<wgt id='1380'> +7.1065482e+04 </wgt>
<wgt id='1381'> +7.3411403e+04 </wgt>
<wgt id='1382'> +7.1815096e+04 </wgt>
<wgt id='1383'> +6.9956076e+04 </wgt>
<wgt id='1384'> +7.2971132e+04 </wgt>
<wgt id='1385'> +6.9198871e+04 </wgt>
<wgt id='1386'> +7.3148347e+04 </wgt>
<wgt id='1387'> +7.3870478e+04 </wgt>
<wgt id='1388'> +7.5062283e+04 </wgt>
<wgt id='1389'> +7.1481257e+04 </wgt>
<wgt id='1390'> +6.9453056e+04 </wgt>
<wgt id='1391'> +7.2182938e+04 </wgt>
<wgt id='1392'> +7.1510300e+04 </wgt>
<wgt id='1393'> +7.2656286e+04 </wgt>
<wgt id='1394'> +7.1494737e+04 </wgt>
<wgt id='1395'> +7.2532632e+04 </wgt>
<wgt id='1396'> +7.2356467e+04 </wgt>
<wgt id='1397'> +7.3443305e+04 </wgt>
<wgt id='1398'> +7.3280449e+04 </wgt>
<wgt id='1399'> +7.2342937e+04 </wgt>
<wgt id='1400'> +7.2874726e+04 </wgt>
<wgt id='1401'> +7.1776859e+04 </wgt>
<wgt id='1402'> +7.2586795e+04 </wgt>
<wgt id='1403'> +7.3088108e+04 </wgt>
<wgt id='1404'> +7.3703544e+04 </wgt>
<wgt id='1405'> +7.2231399e+04 </wgt>
<wgt id='1406'> +7.1490026e+04 </wgt>
<wgt id='1407'> +7.2727454e+04 </wgt>
<wgt id='1408'> +7.6174416e+04 </wgt>
<wgt id='1409'> +7.2345347e+04 </wgt>
<wgt id='1410'> +7.4227204e+04 </wgt>
<wgt id='1411'> +7.3629895e+04 </wgt>
<wgt id='1412'> +7.2540900e+04 </wgt>
<wgt id='1413'> +7.3201400e+04 </wgt>
<wgt id='1414'> +7.1632630e+04 </wgt>
<wgt id='1415'> +7.0902918e+04 </wgt>
<wgt id='1416'> +7.4032089e+04 </wgt>
<wgt id='1417'> +7.2657032e+04 </wgt>
<wgt id='1418'> +7.3820260e+04 </wgt>
<wgt id='1419'> +7.2163432e+04 </wgt>
<wgt id='1420'> +7.2169943e+04 </wgt>
<wgt id='1421'> +7.2443353e+04 </wgt>
<wgt id='1422'> +7.3233249e+04 </wgt>
<wgt id='1423'> +7.2901182e+04 </wgt>
<wgt id='1424'> +7.3658208e+04 </wgt>
<wgt id='1425'> +7.4725246e+04 </wgt>
<wgt id='1426'> +7.2702267e+04 </wgt>
<wgt id='1427'> +7.3263713e+04 </wgt>
<wgt id='1428'> +7.6012109e+04 </wgt>
<wgt id='1429'> +7.2704862e+04 </wgt>
<wgt id='1430'> +7.2498989e+04 </wgt>
<wgt id='1431'> +7.2595022e+04 </wgt>
<wgt id='1432'> +7.3044861e+04 </wgt>
<wgt id='1433'> +7.2519562e+04 </wgt>
<wgt id='1434'> +7.2379356e+04 </wgt>
<wgt id='1435'> +7.2404990e+04 </wgt>
<wgt id='1436'> +7.2177094e+04 </wgt>
<wgt id='1437'> +7.2875837e+04 </wgt>
<wgt id='1438'> +7.2743160e+04 </wgt>
<wgt id='1439'> +7.2427919e+04 </wgt>
<wgt id='1440'> +7.2634368e+04 </wgt>
<wgt id='1441'> +7.2702966e+04 </wgt>
<wgt id='1442'> +7.2343345e+04 </wgt>
<wgt id='1443'> +7.2616688e+04 </wgt>
<wgt id='1444'> +7.2302823e+04 </wgt>
<wgt id='1445'> +7.2076848e+04 </wgt>
<wgt id='1446'> +7.2887551e+04 </wgt>
<wgt id='1447'> +7.2596483e+04 </wgt>
<wgt id='1448'> +7.2846380e+04 </wgt>
<wgt id='1449'> +7.2438985e+04 </wgt>
<wgt id='1450'> +7.2239230e+04 </wgt>
<wgt id='1451'> +7.2785696e+04 </wgt>
<wgt id='1452'> +7.3132375e+04 </wgt>
<wgt id='1453'> +7.2619361e+04 </wgt>
<wgt id='1454'> +7.2640232e+04 </wgt>
<wgt id='1455'> +7.2579545e+04 </wgt>
<wgt id='1456'> +7.2576798e+04 </wgt>
<wgt id='1457'> +7.2548259e+04 </wgt>
<wgt id='1458'> +7.2328014e+04 </wgt>
<wgt id='1459'> +7.2699365e+04 </wgt>
<wgt id='1460'> +7.2761391e+04 </wgt>
<wgt id='1461'> +7.2623540e+04 </wgt>
<wgt id='1462'> +7.2777417e+04 </wgt>
<wgt id='1463'> +7.2667291e+04 </wgt>
<wgt id='1464'> +7.2600046e+04 </wgt>
<wgt id='1465'> +7.2531807e+04 </wgt>
<wgt id='1466'> +7.2711997e+04 </wgt>
<wgt id='1467'> +7.2667497e+04 </wgt>
<wgt id='1468'> +7.2665208e+04 </wgt>
<wgt id='1469'> +7.2555864e+04 </wgt>
<wgt id='1470'> +7.2454302e+04 </wgt>
<wgt id='1471'> +7.2677386e+04 </wgt>
<wgt id='1472'> +7.2642988e+04 </wgt>
<wgt id='1473'> +7.2718575e+04 </wgt>
<wgt id='1474'> +7.2438911e+04 </wgt>
<wgt id='1475'> +7.2589081e+04 </wgt>
<wgt id='1476'> +7.2539036e+04 </wgt>
<wgt id='1477'> +7.2578874e+04 </wgt>
<wgt id='1478'> +7.2546215e+04 </wgt>
<wgt id='1479'> +7.2668302e+04 </wgt>
<wgt id='1480'> +7.2699435e+04 </wgt>
<wgt id='1481'> +7.2645194e+04 </wgt>
<wgt id='1482'> +7.2704862e+04 </wgt>
<wgt id='1483'> +7.2498989e+04 </wgt>
<wgt id='1484'> +7.6252736e+04 </wgt>
<wgt id='1485'> +7.4077648e+04 </wgt>
<wgt id='1486'> +7.6718499e+04 </wgt>
<wgt id='1487'> +7.4596472e+04 </wgt>
<wgt id='1488'> +7.5766053e+04 </wgt>
<wgt id='1489'> +7.5736101e+04 </wgt>
<wgt id='1490'> +7.4387461e+04 </wgt>
<wgt id='1491'> +7.5272754e+04 </wgt>
<wgt id='1492'> +7.3639659e+04 </wgt>
<wgt id='1493'> +7.7751195e+04 </wgt>
<wgt id='1494'> +7.6605682e+04 </wgt>
<wgt id='1495'> +7.2683727e+04 </wgt>
<wgt id='1496'> +7.4739867e+04 </wgt>
<wgt id='1497'> +7.4522159e+04 </wgt>
<wgt id='1498'> +7.8020338e+04 </wgt>
<wgt id='1499'> +7.6795116e+04 </wgt>
<wgt id='1500'> +7.5760148e+04 </wgt>
<wgt id='1501'> +7.6427146e+04 </wgt>
<wgt id='1502'> +7.5716330e+04 </wgt>
<wgt id='1503'> +7.6285179e+04 </wgt>
<wgt id='1504'> +7.7657146e+04 </wgt>
<wgt id='1505'> +7.5828827e+04 </wgt>
<wgt id='1506'> +7.5985231e+04 </wgt>
<wgt id='1507'> +7.5428154e+04 </wgt>
<wgt id='1508'> +7.4228845e+04 </wgt>
<wgt id='1509'> +7.6083096e+04 </wgt>
<wgt id='1510'> +7.7831486e+04 </wgt>
<wgt id='1511'> +7.6765104e+04 </wgt>
<wgt id='1512'> +7.6843040e+04 </wgt>
<wgt id='1513'> +7.6592580e+04 </wgt>
<wgt id='1514'> +7.5199539e+04 </wgt>
<wgt id='1515'> +7.5874568e+04 </wgt>
<wgt id='1516'> +7.5420820e+04 </wgt>
<wgt id='1517'> +7.5988638e+04 </wgt>
<wgt id='1518'> +7.5941189e+04 </wgt>
<wgt id='1519'> +7.6261776e+04 </wgt>
<wgt id='1520'> +7.7150000e+04 </wgt>
<wgt id='1521'> +7.5901827e+04 </wgt>
<wgt id='1522'> +7.7544092e+04 </wgt>
<wgt id='1523'> +7.8054703e+04 </wgt>
<wgt id='1524'> +7.7240894e+04 </wgt>
<wgt id='1525'> +7.7109319e+04 </wgt>
<wgt id='1526'> +7.6078821e+04 </wgt>
<wgt id='1527'> +7.7761707e+04 </wgt>
<wgt id='1528'> +7.6759524e+04 </wgt>
<wgt id='1529'> +7.6059086e+04 </wgt>
<wgt id='1530'> +7.6998182e+04 </wgt>
<wgt id='1531'> +7.5674119e+04 </wgt>
<wgt id='1532'> +7.6743487e+04 </wgt>
<wgt id='1533'> +7.7336460e+04 </wgt>
<wgt id='1534'> +7.5215669e+04 </wgt>
<wgt id='1535'> +7.7689481e+04 </wgt>
<wgt id='1536'> +7.6227511e+04 </wgt>
<wgt id='1537'> +7.5718029e+04 </wgt>
<wgt id='1538'> +7.6618764e+04 </wgt>
<wgt id='1539'> +7.6905193e+04 </wgt>
<wgt id='1540'> +7.7175971e+04 </wgt>
<wgt id='1541'> +7.6364691e+04 </wgt>
<wgt id='1542'> +7.6511844e+04 </wgt>
<wgt id='1543'> +7.6420727e+04 </wgt>
<wgt id='1544'> +7.7197449e+04 </wgt>
<wgt id='1545'> +7.7144912e+04 </wgt>
<wgt id='1546'> +7.6396261e+04 </wgt>
<wgt id='1547'> +7.7074701e+04 </wgt>
<wgt id='1548'> +7.6115865e+04 </wgt>
<wgt id='1549'> +7.6586890e+04 </wgt>
<wgt id='1550'> +7.5973181e+04 </wgt>
<wgt id='1551'> +7.8986803e+04 </wgt>
<wgt id='1552'> +7.6326745e+04 </wgt>
<wgt id='1553'> +7.8953842e+04 </wgt>
<wgt id='1554'> +7.7728103e+04 </wgt>
<wgt id='1555'> +7.5629340e+04 </wgt>
<wgt id='1556'> +7.5377661e+04 </wgt>
<wgt id='1557'> +7.6209625e+04 </wgt>
<wgt id='1558'> +7.6260790e+04 </wgt>
<wgt id='1559'> +7.7557231e+04 </wgt>
<wgt id='1560'> +7.7312026e+04 </wgt>
<wgt id='1561'> +7.5821944e+04 </wgt>
<wgt id='1562'> +7.6869431e+04 </wgt>
<wgt id='1563'> +7.4487533e+04 </wgt>
<wgt id='1564'> +7.6310091e+04 </wgt>
<wgt id='1565'> +7.5539956e+04 </wgt>
<wgt id='1566'> +7.6340904e+04 </wgt>
<wgt id='1567'> +7.7211242e+04 </wgt>
<wgt id='1568'> +7.5915311e+04 </wgt>
<wgt id='1569'> +7.6169328e+04 </wgt>
<wgt id='1570'> +7.7935091e+04 </wgt>
<wgt id='1571'> +7.4727774e+04 </wgt>
<wgt id='1572'> +7.4874830e+04 </wgt>
<wgt id='1573'> +7.5477000e+04 </wgt>
<wgt id='1574'> +7.4845373e+04 </wgt>
<wgt id='1575'> +7.4665697e+04 </wgt>
<wgt id='1576'> +7.7664844e+04 </wgt>
<wgt id='1577'> +7.4150991e+04 </wgt>
<wgt id='1578'> +7.7009042e+04 </wgt>
<wgt id='1579'> +7.6488031e+04 </wgt>
<wgt id='1580'> +7.8006905e+04 </wgt>
<wgt id='1581'> +7.6770488e+04 </wgt>
<wgt id='1582'> +7.5235860e+04 </wgt>
<wgt id='1583'> +7.6045930e+04 </wgt>
<wgt id='1584'> +7.5107934e+04 </wgt>
<wgt id='1585'> +7.5061244e+04 </wgt>
<wgt id='1586'> +6.4366939e+04 </wgt>
<wgt id='1587'> +7.2783473e+04 </wgt>
<wgt id='1588'> +7.2704862e+04 </wgt>
<wgt id='1589'> +7.2656370e+04 </wgt>
<wgt id='1590'> +7.2287350e+04 </wgt>
<wgt id='1591'> +7.2498989e+04 </wgt>
<wgt id='1592'> +7.2429717e+04 </wgt>
<wgt id='1593'> +7.5286578e+04 </wgt>
<wgt id='1594'> +7.5193861e+04 </wgt>
<wgt id='1595'> +7.3865706e+04 </wgt>
<wgt id='1596'> +7.4735385e+04 </wgt>
<wgt id='1597'> +7.5001439e+04 </wgt>
<wgt id='1598'> +7.3994340e+04 </wgt>
<wgt id='1599'> +7.6035338e+04 </wgt>
<wgt id='1600'> +7.4728986e+04 </wgt>
<wgt id='1601'> +7.5834383e+04 </wgt>
<wgt id='1602'> +7.4864933e+04 </wgt>
<wgt id='1603'> +7.5737253e+04 </wgt>
<wgt id='1604'> +7.5776078e+04 </wgt>
<wgt id='1605'> +7.3864316e+04 </wgt>
<wgt id='1606'> +7.4905515e+04 </wgt>
<wgt id='1607'> +7.6249679e+04 </wgt>
<wgt id='1608'> +7.5435664e+04 </wgt>
<wgt id='1609'> +7.4877924e+04 </wgt>
<wgt id='1610'> +7.5844020e+04 </wgt>
<wgt id='1611'> +7.4554072e+04 </wgt>
<wgt id='1612'> +7.5899253e+04 </wgt>
<wgt id='1613'> +7.4536037e+04 </wgt>
<wgt id='1614'> +7.5322921e+04 </wgt>
<wgt id='1615'> +7.5208638e+04 </wgt>
<wgt id='1616'> +7.4849938e+04 </wgt>
<wgt id='1617'> +7.5585654e+04 </wgt>
<wgt id='1618'> +7.5484717e+04 </wgt>
<wgt id='1619'> +7.4604104e+04 </wgt>
<wgt id='1620'> +7.5850353e+04 </wgt>
<wgt id='1621'> +7.4957479e+04 </wgt>
<wgt id='1622'> +7.6311906e+04 </wgt>
<wgt id='1623'> +7.5224142e+04 </wgt>
<wgt id='1624'> +7.5142747e+04 </wgt>
<wgt id='1625'> +7.5063074e+04 </wgt>
<wgt id='1626'> +7.4828415e+04 </wgt>
<wgt id='1627'> +7.6293329e+04 </wgt>
<wgt id='1628'> +7.5663779e+04 </wgt>
<wgt id='1629'> +7.5444898e+04 </wgt>
<wgt id='1630'> +7.4386070e+04 </wgt>
<wgt id='1631'> +7.5524685e+04 </wgt>
<wgt id='1632'> +7.4139992e+04 </wgt>
<wgt id='1633'> +7.6397916e+04 </wgt>
<wgt id='1634'> +7.5881248e+04 </wgt>
<wgt id='1635'> +7.5165698e+04 </wgt>
<wgt id='1636'> +7.5365268e+04 </wgt>
<wgt id='1637'> +7.6335341e+04 </wgt>
<wgt id='1638'> +7.4925790e+04 </wgt>
<wgt id='1639'> +7.5373435e+04 </wgt>
<wgt id='1640'> +7.6017176e+04 </wgt>
<wgt id='1641'> +7.5163611e+04 </wgt>
<wgt id='1642'> +7.6354720e+04 </wgt>
<wgt id='1643'> +7.4731558e+04 </wgt>
<wgt id='1644'> +7.6835405e+04 </wgt>
<wgt id='1645'> +7.3644941e+04 </wgt>
<wgt id='1646'> +7.4373094e+04 </wgt>
<wgt id='1647'> +7.6890919e+04 </wgt>
<wgt id='1648'> +7.6060138e+04 </wgt>
<wgt id='1649'> +7.6101082e+04 </wgt>
<wgt id='1650'> +7.6750744e+04 </wgt>
<wgt id='1651'> +7.3711612e+04 </wgt>
<wgt id='1652'> +7.5226695e+04 </wgt>
<wgt id='1653'> +7.5258685e+04 </wgt>
<wgt id='1654'> +7.5315392e+04 </wgt>
<wgt id='1655'> +7.5343875e+04 </wgt>
<wgt id='1656'> +7.7217471e+04 </wgt>
<wgt id='1657'> +7.6229661e+04 </wgt>
<wgt id='1658'> +7.7478075e+04 </wgt>
<wgt id='1659'> +7.8233249e+04 </wgt>
<wgt id='1660'> +7.6490926e+04 </wgt>
<wgt id='1661'> +7.8065967e+04 </wgt>
<wgt id='1662'> +7.6091448e+04 </wgt>
<wgt id='1663'> +7.8627284e+04 </wgt>
<wgt id='1664'> +7.7201117e+04 </wgt>
<wgt id='1665'> +7.7698876e+04 </wgt>
<wgt id='1666'> +7.7249648e+04 </wgt>
<wgt id='1667'> +7.7758413e+04 </wgt>
<wgt id='1668'> +7.6777764e+04 </wgt>
<wgt id='1669'> +7.7400563e+04 </wgt>
<wgt id='1670'> +7.7315976e+04 </wgt>
<wgt id='1671'> +7.7523714e+04 </wgt>
<wgt id='1672'> +7.5910744e+04 </wgt>
<wgt id='1673'> +7.7303023e+04 </wgt>
<wgt id='1674'> +7.7078336e+04 </wgt>
<wgt id='1675'> +7.8062018e+04 </wgt>
<wgt id='1676'> +7.7057533e+04 </wgt>
<wgt id='1677'> +7.6104026e+04 </wgt>
<wgt id='1678'> +7.7483801e+04 </wgt>
<wgt id='1679'> +7.7384242e+04 </wgt>
<wgt id='1680'> +7.7784951e+04 </wgt>
<wgt id='1681'> +7.7678825e+04 </wgt>
<wgt id='1682'> +7.6556849e+04 </wgt>
<wgt id='1683'> +7.6850500e+04 </wgt>
<wgt id='1684'> +7.7566864e+04 </wgt>
<wgt id='1685'> +7.8318391e+04 </wgt>
<wgt id='1686'> +7.6814091e+04 </wgt>
<wgt id='1687'> +7.7512005e+04 </wgt>
<wgt id='1688'> +7.6515408e+04 </wgt>
<wgt id='1689'> +7.6951952e+04 </wgt>
<wgt id='1690'> +7.8002550e+04 </wgt>
<wgt id='1691'> +7.7451754e+04 </wgt>
<wgt id='1692'> +7.7512444e+04 </wgt>
<wgt id='1693'> +7.7311390e+04 </wgt>
<wgt id='1694'> +7.7501529e+04 </wgt>
<wgt id='1695'> +7.6750293e+04 </wgt>
<wgt id='1696'> +7.8504575e+04 </wgt>
<wgt id='1697'> +7.8039906e+04 </wgt>
<wgt id='1698'> +7.6727619e+04 </wgt>
<wgt id='1699'> +7.6607983e+04 </wgt>
<wgt id='1700'> +7.7971138e+04 </wgt>
<wgt id='1701'> +7.6843206e+04 </wgt>
<wgt id='1702'> +7.7878512e+04 </wgt>
<wgt id='1703'> +7.6847745e+04 </wgt>
<wgt id='1704'> +7.7631098e+04 </wgt>
<wgt id='1705'> +7.6800077e+04 </wgt>
<wgt id='1706'> +7.8119518e+04 </wgt>
<wgt id='1707'> +7.6024105e+04 </wgt>
<wgt id='1708'> +7.7813646e+04 </wgt>
<wgt id='1709'> +7.6671684e+04 </wgt>
<wgt id='1710'> +7.8268363e+04 </wgt>
<wgt id='1711'> +7.6504170e+04 </wgt>
<wgt id='1712'> +7.8171467e+04 </wgt>
<wgt id='1713'> +7.8529664e+04 </wgt>
<wgt id='1714'> +7.5659022e+04 </wgt>
<wgt id='1715'> +7.4586721e+04 </wgt>
<wgt id='1716'> +7.6365761e+04 </wgt>
<wgt id='1717'> +7.3960978e+04 </wgt>
<wgt id='1718'> +7.4151447e+04 </wgt>
<wgt id='1719'> +7.3716708e+04 </wgt>
<wgt id='1720'> +7.4006477e+04 </wgt>
<wgt id='1721'> +7.3919406e+04 </wgt>
<wgt id='1722'> +7.3952578e+04 </wgt>
<wgt id='1723'> +7.3974648e+04 </wgt>
<wgt id='1724'> +7.4112577e+04 </wgt>
<wgt id='1725'> +7.3837484e+04 </wgt>
<wgt id='1726'> +7.3810558e+04 </wgt>
<wgt id='1727'> +7.4116091e+04 </wgt>
<wgt id='1728'> +7.3370803e+04 </wgt>
<wgt id='1729'> +7.4535645e+04 </wgt>
<wgt id='1730'> +7.3705866e+04 </wgt>
<wgt id='1731'> +7.4142345e+04 </wgt>
<wgt id='1732'> +7.4173637e+04 </wgt>
<wgt id='1733'> +7.4173637e+04 </wgt>
<wgt id='1734'> +7.3440397e+04 </wgt>
<wgt id='1735'> +7.4311330e+04 </wgt>
<wgt id='1736'> +7.3743607e+04 </wgt>
<wgt id='1737'> +7.4259772e+04 </wgt>
<wgt id='1738'> +7.4345511e+04 </wgt>
<wgt id='1739'> +7.3273337e+04 </wgt>
<wgt id='1740'> +7.4188085e+04 </wgt>
<wgt id='1741'> +7.3409611e+04 </wgt>
<wgt id='1742'> +7.4012347e+04 </wgt>
<wgt id='1743'> +7.3897809e+04 </wgt>
<wgt id='1744'> +7.3905607e+04 </wgt>
<wgt id='1745'> +7.4108744e+04 </wgt>
<wgt id='1746'> +7.3739504e+04 </wgt>
<wgt id='1747'> +7.4055514e+04 </wgt>
<wgt id='1748'> +7.4411401e+04 </wgt>
<wgt id='1749'> +7.2516099e+04 </wgt>
<wgt id='1750'> +7.4413383e+04 </wgt>
<wgt id='1751'> +7.3476414e+04 </wgt>
<wgt id='1752'> +7.3873120e+04 </wgt>
<wgt id='1753'> +7.4081455e+04 </wgt>
<wgt id='1754'> +7.4223652e+04 </wgt>
<wgt id='1755'> +7.3818098e+04 </wgt>
<wgt id='1756'> +7.3769881e+04 </wgt>
<wgt id='1757'> +7.4423050e+04 </wgt>
<wgt id='1758'> +7.3593714e+04 </wgt>
<wgt id='1759'> +7.4043853e+04 </wgt>
<wgt id='1760'> +7.4341454e+04 </wgt>
<wgt id='1761'> +7.3563995e+04 </wgt>
<wgt id='1762'> +7.3773175e+04 </wgt>
<wgt id='1763'> +7.4589192e+04 </wgt>
<wgt id='1764'> +7.3871559e+04 </wgt>
<wgt id='1765'> +7.4326218e+04 </wgt>
<wgt id='1766'> +7.3852132e+04 </wgt>
<wgt id='1767'> +7.3968059e+04 </wgt>
<wgt id='1768'> +7.3996600e+04 </wgt>
<wgt id='1769'> +7.3949860e+04 </wgt>
<wgt id='1770'> +7.3809566e+04 </wgt>
<wgt id='1771'> +7.4257650e+04 </wgt>
<wgt id='1772'> +7.4069327e+04 </wgt>
<wgt id='1773'> +7.3855964e+04 </wgt>
<wgt id='1774'> +7.2924472e+04 </wgt>
<wgt id='1775'> +7.4576083e+04 </wgt>
<wgt id='1776'> +7.3984150e+04 </wgt>
<wgt id='1777'> +7.3909566e+04 </wgt>
<wgt id='1778'> +7.3755036e+04 </wgt>
<wgt id='1779'> +7.4252060e+04 </wgt>
<wgt id='1780'> +7.4375458e+04 </wgt>
<wgt id='1781'> +7.4115108e+04 </wgt>
<wgt id='1782'> +7.3960978e+04 </wgt>
<wgt id='1783'> +7.3982359e+04 </wgt>
<wgt id='1784'> +7.3886608e+04 </wgt>
<wgt id='1785'> +7.3457672e+04 </wgt>
<wgt id='1786'> +7.3180301e+04 </wgt>
<wgt id='1787'> +7.3684282e+04 </wgt>
<wgt id='1788'> +7.3513493e+04 </wgt>
<wgt id='1789'> +7.3885121e+04 </wgt>
<wgt id='1790'> +7.3169356e+04 </wgt>
<wgt id='1791'> +7.3756414e+04 </wgt>
<wgt id='1792'> +7.3849955e+04 </wgt>
<wgt id='1793'> +7.3993430e+04 </wgt>
<wgt id='1794'> +7.4234329e+04 </wgt>
<wgt id='1795'> +7.3492332e+04 </wgt>
<wgt id='1796'> +7.3849182e+04 </wgt>
<wgt id='1797'> +7.3823996e+04 </wgt>
<wgt id='1798'> +7.3691785e+04 </wgt>
<wgt id='1799'> +7.4417698e+04 </wgt>
<wgt id='1800'> +7.4353782e+04 </wgt>
<wgt id='1801'> +7.4435596e+04 </wgt>
<wgt id='1802'> +7.3815910e+04 </wgt>
<wgt id='1803'> +7.3983995e+04 </wgt>
<wgt id='1804'> +7.3006333e+04 </wgt>
<wgt id='1805'> +7.3660255e+04 </wgt>
<wgt id='1806'> +7.3560812e+04 </wgt>
<wgt id='1807'> +7.3835058e+04 </wgt>
<wgt id='1808'> +7.4056601e+04 </wgt>
<wgt id='1809'> +7.3362685e+04 </wgt>
<wgt id='1810'> +7.3911161e+04 </wgt>
<wgt id='1811'> +7.2536478e+04 </wgt>
<wgt id='1812'> +7.3808077e+04 </wgt>
<wgt id='1813'> +7.3686955e+04 </wgt>
<wgt id='1814'> +7.3792739e+04 </wgt>
<wgt id='1815'> +7.3826820e+04 </wgt>
<wgt id='1816'> +7.3776210e+04 </wgt>
<wgt id='1817'> +7.3696850e+04 </wgt>
<wgt id='1818'> +7.3836386e+04 </wgt>
<wgt id='1819'> +7.4226023e+04 </wgt>
<wgt id='1820'> +7.3798372e+04 </wgt>
<wgt id='1821'> +7.3871377e+04 </wgt>
<wgt id='1822'> +7.3855102e+04 </wgt>
<wgt id='1823'> +7.3740196e+04 </wgt>
<wgt id='1824'> +7.4018573e+04 </wgt>
<wgt id='1825'> +7.3863016e+04 </wgt>
<wgt id='1826'> +7.4457310e+04 </wgt>
<wgt id='1827'> +8.3584946e+04 </wgt>
<wgt id='1828'> +8.3715182e+04 </wgt>
<wgt id='1829'> +8.3474320e+04 </wgt>
<wgt id='1830'> +8.3771553e+04 </wgt>
<wgt id='1831'> +8.3416689e+04 </wgt>
<wgt id='1832'> +8.3640764e+04 </wgt>
<wgt id='1833'> +8.3548155e+04 </wgt>
<wgt id='1834'> +8.3278710e+04 </wgt>
<wgt id='1835'> +8.3892498e+04 </wgt>
<wgt id='1836'> +8.3364488e+04 </wgt>
<wgt id='1837'> +8.3802896e+04 </wgt>
<wgt id='1838'> +8.1976937e+04 </wgt>
<wgt id='1839'> +8.5188936e+04 </wgt>
<wgt id='1840'> +8.3951123e+04 </wgt>
<wgt id='1841'> +8.3250431e+04 </wgt>
<wgt id='1842'> +8.3713446e+04 </wgt>
<wgt id='1843'> +8.3926488e+04 </wgt>
<wgt id='1844'> +8.3444994e+04 </wgt>
<wgt id='1845'> +8.3714008e+04 </wgt>
<wgt id='1846'> +8.2100351e+04 </wgt>
<wgt id='1847'> +8.4991737e+04 </wgt>
<wgt id='1848'> +8.3493363e+04 </wgt>
<wgt id='1849'> +8.3585392e+04 </wgt>
<wgt id='1850'> +8.4461149e+04 </wgt>
<wgt id='1851'> +8.2775943e+04 </wgt>
<wgt id='1852'> +8.3224754e+04 </wgt>
<wgt id='1853'> +8.4109158e+04 </wgt>
<wgt id='1854'> +8.2613636e+04 </wgt>
<wgt id='1855'> +8.4758746e+04 </wgt>
<wgt id='1856'> +7.4521570e+04 </wgt>
<wgt id='1857'> +7.4511595e+04 </wgt>
<wgt id='1858'> +7.4416977e+04 </wgt>
<wgt id='1859'> +7.4513210e+04 </wgt>
<wgt id='1860'> +7.4520199e+04 </wgt>
<wgt id='1861'> +7.4440590e+04 </wgt>
<wgt id='1862'> +7.4277645e+04 </wgt>
<wgt id='1863'> +7.4496223e+04 </wgt>
<wgt id='1864'> +7.4490572e+04 </wgt>
<wgt id='1865'> +7.4094628e+04 </wgt>
<wgt id='1866'> +7.4624714e+04 </wgt>
<wgt id='1867'> +7.4545283e+04 </wgt>
<wgt id='1868'> +7.4709392e+04 </wgt>
<wgt id='1869'> +7.4616098e+04 </wgt>
<wgt id='1870'> +7.4215685e+04 </wgt>
<wgt id='1871'> +7.4452672e+04 </wgt>
<wgt id='1872'> +7.4247846e+04 </wgt>
<wgt id='1873'> +7.4425862e+04 </wgt>
<wgt id='1874'> +7.4235377e+04 </wgt>
<wgt id='1875'> +7.4653781e+04 </wgt>
<wgt id='1876'> +7.4327465e+04 </wgt>
<wgt id='1877'> +7.4080384e+04 </wgt>
<wgt id='1878'> +7.4514002e+04 </wgt>
<wgt id='1879'> +7.4726501e+04 </wgt>
<wgt id='1880'> +7.4830602e+04 </wgt>
<wgt id='1881'> +7.4449546e+04 </wgt>
<wgt id='1882'> +7.4685562e+04 </wgt>
<wgt id='1883'> +7.4904671e+04 </wgt>
<wgt id='1884'> +7.3823893e+04 </wgt>
<wgt id='1885'> +7.3784124e+04 </wgt>
<wgt id='1886'> +7.2557906e+04 </wgt>
<wgt id='1887'> +7.6691314e+04 </wgt>
<wgt id='1888'> +6.6821218e+04 </wgt>
<wgt id='1889'> +7.7410776e+04 </wgt>
</rwgt>
</event>
<event npLO=" -1 " npNLO=" 0 ">
 5      0 +7.4519530e+04 3.00000000e+01 7.55820760e-03 1.12325330e-01
        2 -1    0    0  501    0 +0.0000000000e+00 +0.0000000000e+00 +8.7133446122e+00 8.7133446122e+00 0.0000000000e+00 0.0000e+00 -1.0000e+00
       -1 -1    0    0    0  501 +0.0000000000e+00 +0.0000000000e+00 -1.3712892948e+02 1.3712892948e+02 0.0000000000e+00 0.0000e+00 1.0000e+00
       24  2    1    2    0    0 +0.0000000000e+00 +0.0000000000e+00 -1.2841558486e+02 1.4584227409e+02 6.9133251589e+01 0.0000e+00 0.0000e+00
      -11  1    3    3    0    0 +1.2309833377e+01 +1.6536497059e+01 -1.2274114742e+02 1.2446034309e+02 0.0000000000e+00 0.0000e+00 1.0000e+00
       12  1    3    3    0    0 -1.2309833377e+01 -1.6536497059e+01 -5.6744374420e+00 2.1381930994e+01 0.0000000000e+00 0.0000e+00 -1.0000e+00
#aMCatNLO 1  0  0  2  1 0.14129294E+03 0.00000000E+00 -9  5  0 0.00000000E+00 0.00000000E+00 0.00000000E+00 0.00000000E+00 0.00000000E+00
<rwgt>
<wgt id='1001'> +7.4519530e+04 </wgt>
<wgt id='1002'> +7.4589892e+04 </wgt>
<wgt id='1003'> +7.4431350e+04 </wgt>
<wgt id='1004'> +7.9838257e+04 </wgt>
<wgt id='1005'> +8.0309415e+04 </wgt>
<wgt id='1006'> +7.9247806e+04 </wgt>
<wgt id='1007'> +6.8351622e+04 </wgt>
<wgt id='1008'> +6.8032919e+04 </wgt>
<wgt id='1009'> +6.8751017e+04 </wgt>
<wgt id='1010'> +7.4519530e+04 </wgt>
<wgt id='1011'> +7.4522160e+04 </wgt>
<wgt id='1012'> +7.4341310e+04 </wgt>
<wgt id='1013'> +7.4282236e+04 </wgt>
<wgt id='1014'> +7.4853610e+04 </wgt>
<wgt id='1015'> +7.4019864e+04 </wgt>
<wgt id='1016'> +7.4672975e+04 </wgt>
<wgt id='1017'> +7.4368962e+04 </wgt>
<wgt id='1018'> +7.4088423e+04 </wgt>
<wgt id='1019'> +7.5075441e+04 </wgt>
<wgt id='1020'> +7.4140135e+04 </wgt>
<wgt id='1021'> +7.4703914e+04 </wgt>
<wgt id='1022'> +7.4661561e+04 </wgt>
<wgt id='1023'> +7.5066006e+04 </wgt>
<wgt id='1024'> +7.4416791e+04 </wgt>
<wgt id='1025'> +7.5646676e+04 </wgt>
<wgt id='1026'> +7.3996987e+04 </wgt>
<wgt id='1027'> +7.4308195e+04 </wgt>
<wgt id='1028'> +7.3942305e+04 </wgt>
<wgt id='1029'> +7.4605772e+04 </wgt>
<wgt id='1030'> +7.4530281e+04 </wgt>
<wgt id='1031'> +7.4352643e+04 </wgt>
<wgt id='1032'> +7.4893654e+04 </wgt>
<wgt id='1033'> +7.4063025e+04 </wgt>
<wgt id='1034'> +7.3761915e+04 </wgt>
<wgt id='1035'> +7.4445951e+04 </wgt>
<wgt id='1036'> +7.4271331e+04 </wgt>
<wgt id='1037'> +7.5176518e+04 </wgt>
<wgt id='1038'> +7.4721042e+04 </wgt>
<wgt id='1039'> +7.5030584e+04 </wgt>
<wgt id='1040'> +7.4763662e+04 </wgt>
<wgt id='1041'> +7.5088832e+04 </wgt>
<wgt id='1042'> +7.4410658e+04 </wgt>
<wgt id='1043'> +7.4407903e+04 </wgt>
<wgt id='1044'> +7.4597516e+04 </wgt>
<wgt id='1045'> +7.4431891e+04 </wgt>
<wgt id='1046'> +7.4407818e+04 </wgt>
<wgt id='1047'> +7.4830616e+04 </wgt>
<wgt id='1048'> +7.4697156e+04 </wgt>
<wgt id='1049'> +7.4624241e+04 </wgt>
<wgt id='1050'> +7.4546763e+04 </wgt>
<wgt id='1051'> +7.4454171e+04 </wgt>
<wgt id='1052'> +7.3997594e+04 </wgt>
<wgt id='1053'> +7.4490346e+04 </wgt>
<wgt id='1054'> +7.4627629e+04 </wgt>
<wgt id='1055'> +7.4867471e+04 </wgt>
<wgt id='1056'> +7.4543280e+04 </wgt>
<wgt id='1057'> +7.4761820e+04 </wgt>
<wgt id='1058'> +7.4514966e+04 </wgt>
<wgt id='1059'> +7.4301161e+04 </wgt>
<wgt id='1060'> +7.4512647e+04 </wgt>
<wgt id='1061'> +7.4747162e+04 </wgt>
<wgt id='1062'> +7.4312305e+04 </wgt>
<wgt id='1063'> +7.4346709e+04 </wgt>
<wgt id='1064'> +7.4395281e+04 </wgt>
<wgt id='1065'> +7.4547139e+04 </wgt>
<wgt id='1066'> +7.4441307e+04 </wgt>
<wgt id='1067'> +7.4648385e+04 </wgt>
<wgt id='1068'> +7.4561524e+04 </wgt>
<wgt id='1069'> +7.4584181e+04 </wgt>
<wgt id='1070'> +7.4658580e+04 </wgt>
<wgt id='1071'> +7.4472453e+04 </wgt>
<wgt id='1072'> +7.4532692e+04 </wgt>
<wgt id='1073'> +7.4393349e+04 </wgt>
<wgt id='1074'> +7.4556775e+04 </wgt>
<wgt id='1075'> +7.4522452e+04 </wgt>
<wgt id='1076'> +7.4559888e+04 </wgt>
<wgt id='1077'> +7.4577764e+04 </wgt>
<wgt id='1078'> +7.4484875e+04 </wgt>
<wgt id='1079'> +7.4401540e+04 </wgt>
<wgt id='1080'> +7.4640599e+04 </wgt>
<wgt id='1081'> +7.4635537e+04 </wgt>
<wgt id='1082'> +7.4374956e+04 </wgt>
<wgt id='1083'> +7.4538393e+04 </wgt>
<wgt id='1084'> +7.4428270e+04 </wgt>
<wgt id='1085'> +7.4587192e+04 </wgt>
<wgt id='1086'> +7.4434548e+04 </wgt>
<wgt id='1087'> +7.4550777e+04 </wgt>
<wgt id='1088'> +7.4519903e+04 </wgt>
<wgt id='1089'> +7.4527827e+04 </wgt>
<wgt id='1090'> +7.4511842e+04 </wgt>
<wgt id='1091'> +7.4499336e+04 </wgt>
<wgt id='1092'> +7.4640215e+04 </wgt>
<wgt id='1093'> +7.4411132e+04 </wgt>
<wgt id='1094'> +7.4531144e+04 </wgt>
<wgt id='1095'> +7.4563998e+04 </wgt>
<wgt id='1096'> +7.4512612e+04 </wgt>
<wgt id='1097'> +7.4562481e+04 </wgt>
<wgt id='1098'> +7.4522132e+04 </wgt>
<wgt id='1099'> +7.4530658e+04 </wgt>
<wgt id='1100'> +7.4477198e+04 </wgt>
<wgt id='1101'> +7.4496215e+04 </wgt>
<wgt id='1102'> +7.4495170e+04 </wgt>
<wgt id='1103'> +7.4501320e+04 </wgt>
<wgt id='1104'> +7.4475391e+04 </wgt>
<wgt id='1105'> +7.4488846e+04 </wgt>
<wgt id='1106'> +7.4499001e+04 </wgt>
<wgt id='1107'> +7.4524724e+04 </wgt>
<wgt id='1108'> +7.4554875e+04 </wgt>
<wgt id='1109'> +7.4556277e+04 </wgt>
<wgt id='1110'> +7.4519529e+04 </wgt>
<wgt id='1111'> +7.4858202e+04 </wgt>
<wgt id='1112'> +7.5001569e+04 </wgt>
<wgt id='1113'> +7.4519529e+04 </wgt>
<wgt id='1114'> +8.3861096e+04 </wgt>
<wgt id='1115'> +7.4502426e+04 </wgt>
<wgt id='1116'> +7.5573391e+04 </wgt>
<wgt id='1117'> +7.4915931e+04 </wgt>
<wgt id='1118'> +7.2806676e+04 </wgt>
<wgt id='1119'> +7.7523619e+04 </wgt>
<wgt id='1120'> +7.4804768e+04 </wgt>
<wgt id='1121'> +7.0958102e+04 </wgt>
<wgt id='1122'> +7.1210309e+04 </wgt>
<wgt id='1123'> +7.4099859e+04 </wgt>
<wgt id='1124'> +7.4531906e+04 </wgt>
<wgt id='1125'> +7.1782857e+04 </wgt>
<wgt id='1126'> +7.3402165e+04 </wgt>
<wgt id='1127'> +7.4751836e+04 </wgt>
<wgt id='1128'> +7.3686405e+04 </wgt>
<wgt id='1129'> +7.3623380e+04 </wgt>
<wgt id='1130'> +7.6944813e+04 </wgt>
<wgt id='1131'> +7.3215108e+04 </wgt>
<wgt id='1132'> +7.4966425e+04 </wgt>
<wgt id='1133'> +6.9822998e+04 </wgt>
<wgt id='1134'> +7.2096224e+04 </wgt>
<wgt id='1135'> +7.5616670e+04 </wgt>
<wgt id='1136'> +7.5310791e+04 </wgt>
<wgt id='1137'> +7.2450545e+04 </wgt>
<wgt id='1138'> +7.2532455e+04 </wgt>
<wgt id='1139'> +7.5042054e+04 </wgt>
<wgt id='1140'> +8.3086883e+04 </wgt>
<wgt id='1141'> +7.2497483e+04 </wgt>
<wgt id='1142'> +7.4691250e+04 </wgt>
<wgt id='1143'> +7.6932836e+04 </wgt>
<wgt id='1144'> +7.6488132e+04 </wgt>
<wgt id='1145'> +7.3745379e+04 </wgt>
<wgt id='1146'> +7.9164821e+04 </wgt>
<wgt id='1147'> +7.0161543e+04 </wgt>
<wgt id='1148'> +7.6116364e+04 </wgt>
<wgt id='1149'> +7.4605365e+04 </wgt>
<wgt id='1150'> +7.3705491e+04 </wgt>
<wgt id='1151'> +7.3762655e+04 </wgt>
<wgt id='1152'> +7.2107619e+04 </wgt>
<wgt id='1153'> +7.5751311e+04 </wgt>
<wgt id='1154'> +7.6065617e+04 </wgt>
<wgt id='1155'> +7.5282478e+04 </wgt>
<wgt id='1156'> +7.7706270e+04 </wgt>
<wgt id='1157'> +7.6490178e+04 </wgt>
<wgt id='1158'> +7.2416219e+04 </wgt>
<wgt id='1159'> +7.6162954e+04 </wgt>
<wgt id='1160'> +7.5494855e+04 </wgt>
<wgt id='1161'> +7.2856920e+04 </wgt>
<wgt id='1162'> +7.6174034e+04 </wgt>
<wgt id='1163'> +7.6706192e+04 </wgt>
<wgt id='1164'> +7.1865566e+04 </wgt>
<wgt id='1165'> +7.2608511e+04 </wgt>
<wgt id='1166'> +7.4900757e+04 </wgt>
<wgt id='1167'> +7.6510870e+04 </wgt>
<wgt id='1168'> +7.7798089e+04 </wgt>
<wgt id='1169'> +7.5021909e+04 </wgt>
<wgt id='1170'> +7.6769009e+04 </wgt>
<wgt id='1171'> +7.3749884e+04 </wgt>
<wgt id='1172'> +7.3927897e+04 </wgt>
<wgt id='1173'> +7.6560436e+04 </wgt>
<wgt id='1174'> +7.7061515e+04 </wgt>
<wgt id='1175'> +7.4049964e+04 </wgt>
<wgt id='1176'> +7.5396868e+04 </wgt>
<wgt id='1177'> +7.2653452e+04 </wgt>
<wgt id='1178'> +7.6434500e+04 </wgt>
<wgt id='1179'> +7.4443136e+04 </wgt>
<wgt id='1180'> +7.8642479e+04 </wgt>
<wgt id='1181'> +7.5800117e+04 </wgt>
<wgt id='1182'> +7.3797334e+04 </wgt>
<wgt id='1183'> +7.1816466e+04 </wgt>
<wgt id='1184'> +7.4332464e+04 </wgt>
<wgt id='1185'> +7.1225824e+04 </wgt>
<wgt id='1186'> +7.0100990e+04 </wgt>
<wgt id='1187'> +7.2455481e+04 </wgt>
<wgt id='1188'> +7.0973121e+04 </wgt>
<wgt id='1189'> +7.9546406e+04 </wgt>
<wgt id='1190'> +7.4562996e+04 </wgt>
<wgt id='1191'> +7.4448817e+04 </wgt>
<wgt id='1192'> +7.2935817e+04 </wgt>
<wgt id='1193'> +7.4626171e+04 </wgt>
<wgt id='1194'> +7.5624277e+04 </wgt>
<wgt id='1195'> +7.3623380e+04 </wgt>
<wgt id='1196'> +7.4355998e+04 </wgt>
<wgt id='1197'> +7.2392423e+04 </wgt>
<wgt id='1198'> +7.4392921e+04 </wgt>
<wgt id='1199'> +7.6163187e+04 </wgt>
<wgt id='1200'> +7.2593015e+04 </wgt>
<wgt id='1201'> +7.7771999e+04 </wgt>
<wgt id='1202'> +6.5777853e+04 </wgt>
<wgt id='1203'> +7.2663038e+04 </wgt>
<wgt id='1204'> +7.4797936e+04 </wgt>
<wgt id='1205'> +6.9825596e+04 </wgt>
<wgt id='1206'> +7.1606000e+04 </wgt>
<wgt id='1207'> +7.5402161e+04 </wgt>
<wgt id='1208'> +7.5138687e+04 </wgt>
<wgt id='1209'> +7.4082213e+04 </wgt>
<wgt id='1210'> +7.7834164e+04 </wgt>
<wgt id='1211'> +7.4741414e+04 </wgt>
<wgt id='1212'> +7.6300259e+04 </wgt>
<wgt id='1213'> +7.4673241e+04 </wgt>
<wgt id='1214'> +7.4688439e+04 </wgt>
<wgt id='1215'> +7.5060482e+04 </wgt>
<wgt id='1216'> +7.4476097e+04 </wgt>
<wgt id='1217'> +7.4492716e+04 </wgt>
<wgt id='1218'> +7.4755433e+04 </wgt>
<wgt id='1219'> +7.4648016e+04 </wgt>
<wgt id='1220'> +7.4844544e+04 </wgt>
<wgt id='1221'> +7.4989079e+04 </wgt>
<wgt id='1222'> +7.5101985e+04 </wgt>
<wgt id='1223'> +7.3583743e+04 </wgt>
<wgt id='1224'> +7.3504527e+04 </wgt>
<wgt id='1225'> +7.3685729e+04 </wgt>
<wgt id='1226'> +7.3471281e+04 </wgt>
<wgt id='1227'> +7.4184864e+04 </wgt>
<wgt id='1228'> +7.3539112e+04 </wgt>
<wgt id='1229'> +7.3241946e+04 </wgt>
<wgt id='1230'> +7.3510888e+04 </wgt>
<wgt id='1231'> +7.3330458e+04 </wgt>
<wgt id='1232'> +7.3603033e+04 </wgt>
<wgt id='1233'> +7.2801503e+04 </wgt>
<wgt id='1234'> +7.3505496e+04 </wgt>
<wgt id='1235'> +7.3890936e+04 </wgt>
<wgt id='1236'> +7.3709999e+04 </wgt>
<wgt id='1237'> +7.4037992e+04 </wgt>
<wgt id='1238'> +7.2932621e+04 </wgt>
<wgt id='1239'> +7.3994543e+04 </wgt>
<wgt id='1240'> +7.3345494e+04 </wgt>
<wgt id='1241'> +7.3851635e+04 </wgt>
<wgt id='1242'> +7.3545438e+04 </wgt>
<wgt id='1243'> +7.3225806e+04 </wgt>
<wgt id='1244'> +7.4107186e+04 </wgt>
<wgt id='1245'> +7.3714655e+04 </wgt>
<wgt id='1246'> +7.3628217e+04 </wgt>
<wgt id='1247'> +7.3687020e+04 </wgt>
<wgt id='1248'> +7.3159321e+04 </wgt>
<wgt id='1249'> +7.3435961e+04 </wgt>
<wgt id='1250'> +7.3986435e+04 </wgt>
<wgt id='1251'> +7.3503457e+04 </wgt>
<wgt id='1252'> +7.3748322e+04 </wgt>
<wgt id='1253'> +7.3324150e+04 </wgt>
<wgt id='1254'> +7.4040124e+04 </wgt>
<wgt id='1255'> +7.3095083e+04 </wgt>
<wgt id='1256'> +7.4069007e+04 </wgt>
<wgt id='1257'> +7.3633933e+04 </wgt>
<wgt id='1258'> +7.3505855e+04 </wgt>
<wgt id='1259'> +7.3256849e+04 </wgt>
<wgt id='1260'> +7.3521563e+04 </wgt>
<wgt id='1261'> +7.3166459e+04 </wgt>
<wgt id='1262'> +7.3557747e+04 </wgt>
<wgt id='1263'> +7.3658499e+04 </wgt>
<wgt id='1264'> +7.3136242e+04 </wgt>
<wgt id='1265'> +7.3542360e+04 </wgt>
<wgt id='1266'> +7.3962252e+04 </wgt>
<wgt id='1267'> +7.3417393e+04 </wgt>
<wgt id='1268'> +7.3600292e+04 </wgt>
<wgt id='1269'> +7.3504620e+04 </wgt>
<wgt id='1270'> +7.3722373e+04 </wgt>
<wgt id='1271'> +7.3862296e+04 </wgt>
<wgt id='1272'> +7.3461942e+04 </wgt>
<wgt id='1273'> +7.3685296e+04 </wgt>
<wgt id='1274'> +7.3690168e+04 </wgt>
<wgt id='1275'> +7.3609377e+04 </wgt>
<wgt id='1276'> +7.3689610e+04 </wgt>
<wgt id='1277'> +7.3631651e+04 </wgt>
<wgt id='1278'> +7.3521419e+04 </wgt>
<wgt id='1279'> +7.3559214e+04 </wgt>
<wgt id='1280'> +7.3595883e+04 </wgt>
<wgt id='1281'> +7.3726357e+04 </wgt>
<wgt id='1282'> +7.3612154e+04 </wgt>
<wgt id='1283'> +7.3487181e+04 </wgt>
<wgt id='1284'> +7.3622895e+04 </wgt>
<wgt id='1285'> +7.3712363e+04 </wgt>
<wgt id='1286'> +7.3692313e+04 </wgt>
<wgt id='1287'> +7.3596446e+04 </wgt>
<wgt id='1288'> +7.3637444e+04 </wgt>
<wgt id='1289'> +7.3732523e+04 </wgt>
<wgt id='1290'> +7.3422045e+04 </wgt>
<wgt id='1291'> +7.3467438e+04 </wgt>
<wgt id='1292'> +7.3592193e+04 </wgt>
<wgt id='1293'> +7.3569380e+04 </wgt>
<wgt id='1294'> +7.3577668e+04 </wgt>
<wgt id='1295'> +7.3616549e+04 </wgt>
<wgt id='1296'> +7.3434079e+04 </wgt>
<wgt id='1297'> +7.3675975e+04 </wgt>
<wgt id='1298'> +7.3755355e+04 </wgt>
<wgt id='1299'> +7.3572093e+04 </wgt>
<wgt id='1300'> +7.3591845e+04 </wgt>
<wgt id='1301'> +7.3552552e+04 </wgt>
<wgt id='1302'> +7.3730605e+04 </wgt>
<wgt id='1303'> +7.3488160e+04 </wgt>
<wgt id='1304'> +7.3543495e+04 </wgt>
<wgt id='1305'> +7.3535963e+04 </wgt>
<wgt id='1306'> +7.3524792e+04 </wgt>
<wgt id='1307'> +7.3583217e+04 </wgt>
<wgt id='1308'> +7.3532374e+04 </wgt>
<wgt id='1309'> +7.3560386e+04 </wgt>
<wgt id='1310'> +7.3518729e+04 </wgt>
<wgt id='1311'> +7.3592930e+04 </wgt>
<wgt id='1312'> +7.3649353e+04 </wgt>
<wgt id='1313'> +7.3536036e+04 </wgt>
<wgt id='1314'> +7.3633122e+04 </wgt>
<wgt id='1315'> +7.3612655e+04 </wgt>
<wgt id='1316'> +7.3658167e+04 </wgt>
<wgt id='1317'> +7.3562074e+04 </wgt>
<wgt id='1318'> +7.3532463e+04 </wgt>
<wgt id='1319'> +7.3570868e+04 </wgt>
<wgt id='1320'> +7.3600840e+04 </wgt>
<wgt id='1321'> +7.3560225e+04 </wgt>
<wgt id='1322'> +7.3545414e+04 </wgt>
<wgt id='1323'> +7.3621615e+04 </wgt>
<wgt id='1324'> +7.3529766e+04 </wgt>
<wgt id='1325'> +7.3879657e+04 </wgt>
<wgt id='1326'> +7.1437622e+04 </wgt>
<wgt id='1327'> +6.8156774e+04 </wgt>
<wgt id='1328'> +7.4577986e+04 </wgt>
<wgt id='1329'> +7.4687068e+04 </wgt>
<wgt id='1330'> +7.4992765e+04 </wgt>
<wgt id='1331'> +7.2303553e+04 </wgt>
<wgt id='1332'> +7.6809183e+04 </wgt>
<wgt id='1333'> +7.6945026e+04 </wgt>
<wgt id='1334'> +7.5604477e+04 </wgt>
<wgt id='1335'> +7.4438332e+04 </wgt>
<wgt id='1336'> +7.6186976e+04 </wgt>
<wgt id='1337'> +7.5142841e+04 </wgt>
<wgt id='1338'> +7.2122716e+04 </wgt>
<wgt id='1339'> +7.3736928e+04 </wgt>
<wgt id='1340'> +7.4968607e+04 </wgt>
<wgt id='1341'> +7.3032357e+04 </wgt>
<wgt id='1342'> +7.5801619e+04 </wgt>
<wgt id='1343'> +7.4773986e+04 </wgt>
<wgt id='1344'> +7.6197978e+04 </wgt>
<wgt id='1345'> +7.3182534e+04 </wgt>
<wgt id='1346'> +7.4359714e+04 </wgt>
<wgt id='1347'> +7.4311888e+04 </wgt>
<wgt id='1348'> +7.5430586e+04 </wgt>
<wgt id='1349'> +7.2278848e+04 </wgt>
<wgt id='1350'> +7.3893346e+04 </wgt>
<wgt id='1351'> +7.3912050e+04 </wgt>
<wgt id='1352'> +7.4105551e+04 </wgt>
<wgt id='1353'> +7.6606702e+04 </wgt>
<wgt id='1354'> +7.3021941e+04 </wgt>
<wgt id='1355'> +7.3825246e+04 </wgt>
<wgt id='1356'> +7.4245443e+04 </wgt>
<wgt id='1357'> +7.4462259e+04 </wgt>
<wgt id='1358'> +7.4064701e+04 </wgt>
<wgt id='1359'> +7.3853103e+04 </wgt>
<wgt id='1360'> +7.4803896e+04 </wgt>
<wgt id='1361'> +7.6873351e+04 </wgt>
<wgt id='1362'> +7.2098303e+04 </wgt>
<wgt id='1363'> +7.2787201e+04 </wgt>
<wgt id='1364'> +7.4047808e+04 </wgt>
<wgt id='1365'> +7.6804269e+04 </wgt>
<wgt id='1366'> +7.5383616e+04 </wgt>
<wgt id='1367'> +7.4544140e+04 </wgt>
<wgt id='1368'> +7.2125829e+04 </wgt>
<wgt id='1369'> +7.9352363e+04 </wgt>
<wgt id='1370'> +7.2583147e+04 </wgt>
<wgt id='1371'> +7.6914489e+04 </wgt>
<wgt id='1372'> +7.5649532e+04 </wgt>
<wgt id='1373'> +7.4156810e+04 </wgt>
<wgt id='1374'> +7.3471203e+04 </wgt>
<wgt id='1375'> +7.4336052e+04 </wgt>
<wgt id='1376'> +7.0963023e+04 </wgt>
<wgt id='1377'> +7.4308544e+04 </wgt>
<wgt id='1378'> +7.4402083e+04 </wgt>
<wgt id='1379'> +7.4259067e+04 </wgt>
<wgt id='1380'> +7.6762383e+04 </wgt>
<wgt id='1381'> +7.3768998e+04 </wgt>
<wgt id='1382'> +7.4487577e+04 </wgt>
<wgt id='1383'> +7.2337614e+04 </wgt>
<wgt id='1384'> +7.4759680e+04 </wgt>
<wgt id='1385'> +7.2156872e+04 </wgt>
<wgt id='1386'> +7.5429501e+04 </wgt>
<wgt id='1387'> +7.4867647e+04 </wgt>
<wgt id='1388'> +7.4642771e+04 </wgt>
<wgt id='1389'> +7.3797351e+04 </wgt>
<wgt id='1390'> +7.3163464e+04 </wgt>
<wgt id='1391'> +7.4799246e+04 </wgt>
<wgt id='1392'> +7.1555412e+04 </wgt>
<wgt id='1393'> +7.5032875e+04 </wgt>
<wgt id='1394'> +7.6804269e+04 </wgt>
<wgt id='1395'> +7.3510362e+04 </wgt>
<wgt id='1396'> +7.5464236e+04 </wgt>
<wgt id='1397'> +7.5188023e+04 </wgt>
<wgt id='1398'> +7.5741365e+04 </wgt>
<wgt id='1399'> +7.2443683e+04 </wgt>
<wgt id='1400'> +7.4718456e+04 </wgt>
<wgt id='1401'> +7.2096152e+04 </wgt>
<wgt id='1402'> +7.5596785e+04 </wgt>
<wgt id='1403'> +7.5474134e+04 </wgt>
<wgt id='1404'> +7.3511539e+04 </wgt>
<wgt id='1405'> +7.8507891e+04 </wgt>
<wgt id='1406'> +7.5212605e+04 </wgt>
<wgt id='1407'> +7.3710959e+04 </wgt>
<wgt id='1408'> +7.6012209e+04 </wgt>
<wgt id='1409'> +7.4661253e+04 </wgt>
<wgt id='1410'> +7.6629361e+04 </wgt>
<wgt id='1411'> +7.3103714e+04 </wgt>
<wgt id='1412'> +7.4716820e+04 </wgt>
<wgt id='1413'> +7.4961564e+04 </wgt>
<wgt id='1414'> +7.5105166e+04 </wgt>
<wgt id='1415'> +7.4627079e+04 </wgt>
<wgt id='1416'> +7.4611311e+04 </wgt>
<wgt id='1417'> +7.6463021e+04 </wgt>
<wgt id='1418'> +7.5796956e+04 </wgt>
<wgt id='1419'> +7.3804231e+04 </wgt>
<wgt id='1420'> +7.5063693e+04 </wgt>
<wgt id='1421'> +7.4658511e+04 </wgt>
<wgt id='1422'> +7.4288514e+04 </wgt>
<wgt id='1423'> +7.4672688e+04 </wgt>
<wgt id='1424'> +7.2607666e+04 </wgt>
<wgt id='1425'> +7.7124934e+04 </wgt>
<wgt id='1426'> +7.4182528e+04 </wgt>
<wgt id='1427'> +7.3814047e+04 </wgt>
<wgt id='1428'> +7.6143877e+04 </wgt>
<wgt id='1429'> +7.5315867e+04 </wgt>
<wgt id='1430'> +7.3895580e+04 </wgt>
<wgt id='1431'> +7.4564029e+04 </wgt>
<wgt id='1432'> +7.4359040e+04 </wgt>
<wgt id='1433'> +7.4665175e+04 </wgt>
<wgt id='1434'> +7.4642438e+04 </wgt>
<wgt id='1435'> +7.4827858e+04 </wgt>
<wgt id='1436'> +7.3803741e+04 </wgt>
<wgt id='1437'> +7.4934813e+04 </wgt>
<wgt id='1438'> +7.4672279e+04 </wgt>
<wgt id='1439'> +7.5061974e+04 </wgt>
<wgt id='1440'> +7.4379557e+04 </wgt>
<wgt id='1441'> +7.4413716e+04 </wgt>
<wgt id='1442'> +7.3784820e+04 </wgt>
<wgt id='1443'> +7.4404900e+04 </wgt>
<wgt id='1444'> +7.4729897e+04 </wgt>
<wgt id='1445'> +7.4400233e+04 </wgt>
<wgt id='1446'> +7.4657657e+04 </wgt>
<wgt id='1447'> +7.5064589e+04 </wgt>
<wgt id='1448'> +7.4854881e+04 </wgt>
<wgt id='1449'> +7.4488818e+04 </wgt>
<wgt id='1450'> +7.4699154e+04 </wgt>
<wgt id='1451'> +7.4654175e+04 </wgt>
<wgt id='1452'> +7.4614517e+04 </wgt>
<wgt id='1453'> +7.4440160e+04 </wgt>
<wgt id='1454'> +7.4700564e+04 </wgt>
<wgt id='1455'> +7.4536410e+04 </wgt>
<wgt id='1456'> +7.4428181e+04 </wgt>
<wgt id='1457'> +7.4520954e+04 </wgt>
<wgt id='1458'> +7.4598373e+04 </wgt>
<wgt id='1459'> +7.4746870e+04 </wgt>
<wgt id='1460'> +7.4543344e+04 </wgt>
<wgt id='1461'> +7.4509984e+04 </wgt>
<wgt id='1462'> +7.4503683e+04 </wgt>
<wgt id='1463'> +7.4548722e+04 </wgt>
<wgt id='1464'> +7.4515187e+04 </wgt>
<wgt id='1465'> +7.4564322e+04 </wgt>
<wgt id='1466'> +7.4427688e+04 </wgt>
<wgt id='1467'> +7.4584633e+04 </wgt>
<wgt id='1468'> +7.4559689e+04 </wgt>
<wgt id='1469'> +7.4582524e+04 </wgt>
<wgt id='1470'> +7.4654263e+04 </wgt>
<wgt id='1471'> +7.4546075e+04 </wgt>
<wgt id='1472'> +7.4553058e+04 </wgt>
<wgt id='1473'> +7.4625028e+04 </wgt>
<wgt id='1474'> +7.4580626e+04 </wgt>
<wgt id='1475'> +7.4546648e+04 </wgt>
<wgt id='1476'> +7.4600116e+04 </wgt>
<wgt id='1477'> +7.4539015e+04 </wgt>
<wgt id='1478'> +7.4527983e+04 </wgt>
<wgt id='1479'> +7.4550401e+04 </wgt>
<wgt id='1480'> +7.4594261e+04 </wgt>
<wgt id='1481'> +7.4573094e+04 </wgt>
<wgt id='1482'> +7.5315867e+04 </wgt>
<wgt id='1483'> +7.3895580e+04 </wgt>
<wgt id='1484'> +7.4324811e+04 </wgt>
<wgt id='1485'> +7.3699596e+04 </wgt>
<wgt id='1486'> +7.5079730e+04 </wgt>
<wgt id='1487'> +7.4219000e+04 </wgt>
<wgt id='1488'> +7.3855960e+04 </wgt>
<wgt id='1489'> +7.2248264e+04 </wgt>
<wgt id='1490'> +7.7202020e+04 </wgt>
<wgt id='1491'> +7.3699847e+04 </wgt>
<wgt id='1492'> +7.3398383e+04 </wgt>
<wgt id='1493'> +7.4999112e+04 </wgt>
<wgt id='1494'> +7.4550536e+04 </wgt>
<wgt id='1495'> +7.2395670e+04 </wgt>
<wgt id='1496'> +7.2809232e+04 </wgt>
<wgt id='1497'> +7.3118421e+04 </wgt>
<wgt id='1498'> +7.6389118e+04 </wgt>
<wgt id='1499'> +7.4395393e+04 </wgt>
<wgt id='1500'> +7.6983755e+04 </wgt>
<wgt id='1501'> +7.4860853e+04 </wgt>
<wgt id='1502'> +7.3710974e+04 </wgt>
<wgt id='1503'> +7.3672485e+04 </wgt>
<wgt id='1504'> +7.5215525e+04 </wgt>
<wgt id='1505'> +7.5635505e+04 </wgt>
<wgt id='1506'> +7.4896913e+04 </wgt>
<wgt id='1507'> +7.3112667e+04 </wgt>
<wgt id='1508'> +7.3480379e+04 </wgt>
<wgt id='1509'> +7.4161425e+04 </wgt>
<wgt id='1510'> +7.4108924e+04 </wgt>
<wgt id='1511'> +7.5101623e+04 </wgt>
<wgt id='1512'> +7.6296321e+04 </wgt>
<wgt id='1513'> +7.2044174e+04 </wgt>
<wgt id='1514'> +7.1001340e+04 </wgt>
<wgt id='1515'> +7.5265084e+04 </wgt>
<wgt id='1516'> +7.5301604e+04 </wgt>
<wgt id='1517'> +7.5512546e+04 </wgt>
<wgt id='1518'> +7.4042550e+04 </wgt>
<wgt id='1519'> +7.4391426e+04 </wgt>
<wgt id='1520'> +7.7567969e+04 </wgt>
<wgt id='1521'> +7.6132584e+04 </wgt>
<wgt id='1522'> +7.4159693e+04 </wgt>
<wgt id='1523'> +7.3748606e+04 </wgt>
<wgt id='1524'> +7.4792456e+04 </wgt>
<wgt id='1525'> +7.5044897e+04 </wgt>
<wgt id='1526'> +7.2850375e+04 </wgt>
<wgt id='1527'> +7.4670960e+04 </wgt>
<wgt id='1528'> +7.3311020e+04 </wgt>
<wgt id='1529'> +7.3076429e+04 </wgt>
<wgt id='1530'> +7.3798478e+04 </wgt>
<wgt id='1531'> +7.4385699e+04 </wgt>
<wgt id='1532'> +7.7837576e+04 </wgt>
<wgt id='1533'> +7.6472521e+04 </wgt>
<wgt id='1534'> +7.3559917e+04 </wgt>
<wgt id='1535'> +7.4428996e+04 </wgt>
<wgt id='1536'> +7.4757505e+04 </wgt>
<wgt id='1537'> +7.4140741e+04 </wgt>
<wgt id='1538'> +7.0656256e+04 </wgt>
<wgt id='1539'> +7.3696435e+04 </wgt>
<wgt id='1540'> +7.3711244e+04 </wgt>
<wgt id='1541'> +7.6128692e+04 </wgt>
<wgt id='1542'> +7.2820762e+04 </wgt>
<wgt id='1543'> +7.3603721e+04 </wgt>
<wgt id='1544'> +7.4556613e+04 </wgt>
<wgt id='1545'> +7.5537515e+04 </wgt>
<wgt id='1546'> +7.4193040e+04 </wgt>
<wgt id='1547'> +7.3523225e+04 </wgt>
<wgt id='1548'> +7.4287273e+04 </wgt>
<wgt id='1549'> +7.3154510e+04 </wgt>
<wgt id='1550'> +7.4237037e+04 </wgt>
<wgt id='1551'> +7.4559037e+04 </wgt>
<wgt id='1552'> +7.4875240e+04 </wgt>
<wgt id='1553'> +7.4792209e+04 </wgt>
<wgt id='1554'> +7.5817170e+04 </wgt>
<wgt id='1555'> +7.1606216e+04 </wgt>
<wgt id='1556'> +7.1507730e+04 </wgt>
<wgt id='1557'> +7.3558668e+04 </wgt>
<wgt id='1558'> +7.4571574e+04 </wgt>
<wgt id='1559'> +7.3245052e+04 </wgt>
<wgt id='1560'> +7.6290846e+04 </wgt>
<wgt id='1561'> +7.3535672e+04 </wgt>
<wgt id='1562'> +7.3857784e+04 </wgt>
<wgt id='1563'> +7.2233419e+04 </wgt>
<wgt id='1564'> +7.6263413e+04 </wgt>
<wgt id='1565'> +7.6859693e+04 </wgt>
<wgt id='1566'> +7.5898544e+04 </wgt>
<wgt id='1567'> +7.5039494e+04 </wgt>
<wgt id='1568'> +7.3597677e+04 </wgt>
<wgt id='1569'> +7.3100388e+04 </wgt>
<wgt id='1570'> +7.5322900e+04 </wgt>
<wgt id='1571'> +7.3414758e+04 </wgt>
<wgt id='1572'> +7.3701544e+04 </wgt>
<wgt id='1573'> +7.3492165e+04 </wgt>
<wgt id='1574'> +7.2148751e+04 </wgt>
<wgt id='1575'> +7.6432975e+04 </wgt>
<wgt id='1576'> +7.4334996e+04 </wgt>
<wgt id='1577'> +7.3461089e+04 </wgt>
<wgt id='1578'> +7.5041130e+04 </wgt>
<wgt id='1579'> +7.3567029e+04 </wgt>
<wgt id='1580'> +7.3331623e+04 </wgt>
<wgt id='1581'> +7.5335212e+04 </wgt>
<wgt id='1582'> +7.5485782e+04 </wgt>
<wgt id='1583'> +7.5975251e+04 </wgt>
<wgt id='1584'> +7.4534615e+04 </wgt>
<wgt id='1585'> +7.5284721e+04 </wgt>
<wgt id='1586'> +7.0570446e+04 </wgt>
<wgt id='1587'> +7.6155373e+04 </wgt>
<wgt id='1588'> +7.5315867e+04 </wgt>
<wgt id='1589'> +7.4831297e+04 </wgt>
<wgt id='1590'> +7.4272846e+04 </wgt>
<wgt id='1591'> +7.3895580e+04 </wgt>
<wgt id='1592'> +7.3433815e+04 </wgt>
<wgt id='1593'> +7.1537157e+04 </wgt>
<wgt id='1594'> +7.0677685e+04 </wgt>
<wgt id='1595'> +6.9664436e+04 </wgt>
<wgt id='1596'> +7.0764577e+04 </wgt>
<wgt id='1597'> +7.2286698e+04 </wgt>
<wgt id='1598'> +6.9576507e+04 </wgt>
<wgt id='1599'> +7.2795645e+04 </wgt>
<wgt id='1600'> +6.9980465e+04 </wgt>
<wgt id='1601'> +7.2695463e+04 </wgt>
<wgt id='1602'> +6.7929424e+04 </wgt>
<wgt id='1603'> +7.4570526e+04 </wgt>
<wgt id='1604'> +7.1544537e+04 </wgt>
<wgt id='1605'> +7.2125949e+04 </wgt>
<wgt id='1606'> +7.0899361e+04 </wgt>
<wgt id='1607'> +7.1547540e+04 </wgt>
<wgt id='1608'> +7.1262983e+04 </wgt>
<wgt id='1609'> +7.0713560e+04 </wgt>
<wgt id='1610'> +7.2357946e+04 </wgt>
<wgt id='1611'> +7.0375335e+04 </wgt>
<wgt id='1612'> +7.2449862e+04 </wgt>
<wgt id='1613'> +6.9063085e+04 </wgt>
<wgt id='1614'> +7.2010015e+04 </wgt>
<wgt id='1615'> +7.0740124e+04 </wgt>
<wgt id='1616'> +7.1677810e+04 </wgt>
<wgt id='1617'> +7.0421164e+04 </wgt>
<wgt id='1618'> +7.1564785e+04 </wgt>
<wgt id='1619'> +7.1622119e+04 </wgt>
<wgt id='1620'> +7.1190602e+04 </wgt>
<wgt id='1621'> +7.1477422e+04 </wgt>
<wgt id='1622'> +7.1470111e+04 </wgt>
<wgt id='1623'> +7.0553034e+04 </wgt>
<wgt id='1624'> +7.1406758e+04 </wgt>
<wgt id='1625'> +7.0723913e+04 </wgt>
<wgt id='1626'> +7.0420806e+04 </wgt>
<wgt id='1627'> +7.1971982e+04 </wgt>
<wgt id='1628'> +7.2228321e+04 </wgt>
<wgt id='1629'> +7.1023793e+04 </wgt>
<wgt id='1630'> +7.1023817e+04 </wgt>
<wgt id='1631'> +7.1175729e+04 </wgt>
<wgt id='1632'> +7.1404486e+04 </wgt>
<wgt id='1633'> +7.1013309e+04 </wgt>
<wgt id='1634'> +7.2241415e+04 </wgt>
<wgt id='1635'> +7.0561811e+04 </wgt>
<wgt id='1636'> +7.1005577e+04 </wgt>
<wgt id='1637'> +7.1983246e+04 </wgt>
<wgt id='1638'> +7.0904935e+04 </wgt>
<wgt id='1639'> +7.1788601e+04 </wgt>
<wgt id='1640'> +7.1945471e+04 </wgt>
<wgt id='1641'> +7.0625544e+04 </wgt>
<wgt id='1642'> +7.0893038e+04 </wgt>
<wgt id='1643'> +7.1764419e+04 </wgt>
<wgt id='1644'> +7.2671584e+04 </wgt>
<wgt id='1645'> +6.9274952e+04 </wgt>
<wgt id='1646'> +7.1312323e+04 </wgt>
<wgt id='1647'> +7.1931925e+04 </wgt>
<wgt id='1648'> +7.2079699e+04 </wgt>
<wgt id='1649'> +7.1022030e+04 </wgt>
<wgt id='1650'> +7.1720417e+04 </wgt>
<wgt id='1651'> +7.1267109e+04 </wgt>
<wgt id='1652'> +7.1441005e+04 </wgt>
<wgt id='1653'> +7.1471957e+04 </wgt>
<wgt id='1654'> +7.1640185e+04 </wgt>
<wgt id='1655'> +7.1781481e+04 </wgt>
<wgt id='1656'> +7.3368225e+04 </wgt>
<wgt id='1657'> +7.1562302e+04 </wgt>
<wgt id='1658'> +7.2957643e+04 </wgt>
<wgt id='1659'> +7.4179822e+04 </wgt>
<wgt id='1660'> +7.2620876e+04 </wgt>
<wgt id='1661'> +7.4587554e+04 </wgt>
<wgt id='1662'> +7.1742803e+04 </wgt>
<wgt id='1663'> +7.2486735e+04 </wgt>
<wgt id='1664'> +7.2598309e+04 </wgt>
<wgt id='1665'> +7.2867287e+04 </wgt>
<wgt id='1666'> +7.2963158e+04 </wgt>
<wgt id='1667'> +7.3805042e+04 </wgt>
<wgt id='1668'> +7.2833310e+04 </wgt>
<wgt id='1669'> +7.4167380e+04 </wgt>
<wgt id='1670'> +7.1796517e+04 </wgt>
<wgt id='1671'> +7.3782521e+04 </wgt>
<wgt id='1672'> +7.2623514e+04 </wgt>
<wgt id='1673'> +7.1808418e+04 </wgt>
<wgt id='1674'> +7.4226055e+04 </wgt>
<wgt id='1675'> +7.4144875e+04 </wgt>
<wgt id='1676'> +7.2721145e+04 </wgt>
<wgt id='1677'> +7.2930965e+04 </wgt>
<wgt id='1678'> +7.3516005e+04 </wgt>
<wgt id='1679'> +7.2365729e+04 </wgt>
<wgt id='1680'> +7.4919648e+04 </wgt>
<wgt id='1681'> +7.4388482e+04 </wgt>
<wgt id='1682'> +7.1626900e+04 </wgt>
<wgt id='1683'> +7.3229417e+04 </wgt>
<wgt id='1684'> +7.3345790e+04 </wgt>
<wgt id='1685'> +7.3200813e+04 </wgt>
<wgt id='1686'> +7.2996246e+04 </wgt>
<wgt id='1687'> +7.4453420e+04 </wgt>
<wgt id='1688'> +7.1370537e+04 </wgt>
<wgt id='1689'> +7.3851093e+04 </wgt>
<wgt id='1690'> +7.2900327e+04 </wgt>
<wgt id='1691'> +7.3805149e+04 </wgt>
<wgt id='1692'> +7.2273026e+04 </wgt>
<wgt id='1693'> +7.5916073e+04 </wgt>
<wgt id='1694'> +7.1446570e+04 </wgt>
<wgt id='1695'> +7.2723744e+04 </wgt>
<wgt id='1696'> +7.3540677e+04 </wgt>
<wgt id='1697'> +7.4059236e+04 </wgt>
<wgt id='1698'> +7.2440365e+04 </wgt>
<wgt id='1699'> +7.2066333e+04 </wgt>
<wgt id='1700'> +7.4772392e+04 </wgt>
<wgt id='1701'> +7.2150527e+04 </wgt>
<wgt id='1702'> +7.4764676e+04 </wgt>
<wgt id='1703'> +7.3771236e+04 </wgt>
<wgt id='1704'> +7.3350917e+04 </wgt>
<wgt id='1705'> +7.3053487e+04 </wgt>
<wgt id='1706'> +7.3376445e+04 </wgt>
<wgt id='1707'> +7.1146580e+04 </wgt>
<wgt id='1708'> +7.4974288e+04 </wgt>
<wgt id='1709'> +7.3758831e+04 </wgt>
<wgt id='1710'> +7.3149832e+04 </wgt>
<wgt id='1711'> +7.2267962e+04 </wgt>
<wgt id='1712'> +7.3430215e+04 </wgt>
<wgt id='1713'> +7.2970019e+04 </wgt>
<wgt id='1714'> +7.3390892e+04 </wgt>
<wgt id='1715'> +6.9785205e+04 </wgt>
<wgt id='1716'> +7.3286406e+04 </wgt>
<wgt id='1717'> +7.1272221e+04 </wgt>
<wgt id='1718'> +7.1174043e+04 </wgt>
<wgt id='1719'> +7.1395324e+04 </wgt>
<wgt id='1720'> +7.0869443e+04 </wgt>
<wgt id='1721'> +7.1641015e+04 </wgt>
<wgt id='1722'> +7.0990623e+04 </wgt>
<wgt id='1723'> +7.1734671e+04 </wgt>
<wgt id='1724'> +7.1772345e+04 </wgt>
<wgt id='1725'> +7.0866163e+04 </wgt>
<wgt id='1726'> +7.1214909e+04 </wgt>
<wgt id='1727'> +7.1330714e+04 </wgt>
<wgt id='1728'> +7.0345796e+04 </wgt>
<wgt id='1729'> +7.2175074e+04 </wgt>
<wgt id='1730'> +7.1595970e+04 </wgt>
<wgt id='1731'> +7.1042126e+04 </wgt>
<wgt id='1732'> +7.1750443e+04 </wgt>
<wgt id='1733'> +7.1750443e+04 </wgt>
<wgt id='1734'> +7.1138287e+04 </wgt>
<wgt id='1735'> +7.1360520e+04 </wgt>
<wgt id='1736'> +7.0867995e+04 </wgt>
<wgt id='1737'> +7.1837333e+04 </wgt>
<wgt id='1738'> +7.1499247e+04 </wgt>
<wgt id='1739'> +7.0831803e+04 </wgt>
<wgt id='1740'> +7.1192808e+04 </wgt>
<wgt id='1741'> +7.1461841e+04 </wgt>
<wgt id='1742'> +7.1179790e+04 </wgt>
<wgt id='1743'> +7.1384267e+04 </wgt>
<wgt id='1744'> +7.1498783e+04 </wgt>
<wgt id='1745'> +7.0652695e+04 </wgt>
<wgt id='1746'> +7.1472429e+04 </wgt>
<wgt id='1747'> +7.1132498e+04 </wgt>
<wgt id='1748'> +7.1666192e+04 </wgt>
<wgt id='1749'> +7.0026776e+04 </wgt>
<wgt id='1750'> +7.1672295e+04 </wgt>
<wgt id='1751'> +7.0845370e+04 </wgt>
<wgt id='1752'> +7.1278981e+04 </wgt>
<wgt id='1753'> +7.1273076e+04 </wgt>
<wgt id='1754'> +7.1096972e+04 </wgt>
<wgt id='1755'> +7.1372004e+04 </wgt>
<wgt id='1756'> +7.1353101e+04 </wgt>
<wgt id='1757'> +7.1121825e+04 </wgt>
<wgt id='1758'> +7.1328282e+04 </wgt>
<wgt id='1759'> +7.1141388e+04 </wgt>
<wgt id='1760'> +7.1017465e+04 </wgt>
<wgt id='1761'> +7.1602345e+04 </wgt>
<wgt id='1762'> +7.1209667e+04 </wgt>
<wgt id='1763'> +7.1074365e+04 </wgt>
<wgt id='1764'> +7.1195199e+04 </wgt>
<wgt id='1765'> +7.1584154e+04 </wgt>
<wgt id='1766'> +7.1609949e+04 </wgt>
<wgt id='1767'> +7.0823829e+04 </wgt>
<wgt id='1768'> +7.1415332e+04 </wgt>
<wgt id='1769'> +7.1116015e+04 </wgt>
<wgt id='1770'> +7.0689791e+04 </wgt>
<wgt id='1771'> +7.1682396e+04 </wgt>
<wgt id='1772'> +7.0954519e+04 </wgt>
<wgt id='1773'> +7.1976211e+04 </wgt>
<wgt id='1774'> +7.0510785e+04 </wgt>
<wgt id='1775'> +7.1762240e+04 </wgt>
<wgt id='1776'> +7.1716574e+04 </wgt>
<wgt id='1777'> +7.1080943e+04 </wgt>
<wgt id='1778'> +7.0844019e+04 </wgt>
<wgt id='1779'> +7.1127775e+04 </wgt>
<wgt id='1780'> +7.2281447e+04 </wgt>
<wgt id='1781'> +7.1521785e+04 </wgt>
<wgt id='1782'> +7.1272221e+04 </wgt>
<wgt id='1783'> +7.1437522e+04 </wgt>
<wgt id='1784'> +7.1671903e+04 </wgt>
<wgt id='1785'> +7.1937607e+04 </wgt>
<wgt id='1786'> +7.0320137e+04 </wgt>
<wgt id='1787'> +7.1594675e+04 </wgt>
<wgt id='1788'> +7.0469613e+04 </wgt>
<wgt id='1789'> +7.1773467e+04 </wgt>
<wgt id='1790'> +7.1989401e+04 </wgt>
<wgt id='1791'> +7.1907922e+04 </wgt>
<wgt id='1792'> +7.1152282e+04 </wgt>
<wgt id='1793'> +7.1742444e+04 </wgt>
<wgt id='1794'> +7.1582931e+04 </wgt>
<wgt id='1795'> +7.1633488e+04 </wgt>
<wgt id='1796'> +7.2013622e+04 </wgt>
<wgt id='1797'> +7.1528906e+04 </wgt>
<wgt id='1798'> +7.1830854e+04 </wgt>
<wgt id='1799'> +7.2225689e+04 </wgt>
<wgt id='1800'> +7.1985626e+04 </wgt>
<wgt id='1801'> +7.2134017e+04 </wgt>
<wgt id='1802'> +7.1922340e+04 </wgt>
<wgt id='1803'> +7.1350373e+04 </wgt>
<wgt id='1804'> +7.1793046e+04 </wgt>
<wgt id='1805'> +7.0098004e+04 </wgt>
<wgt id='1806'> +7.1563909e+04 </wgt>
<wgt id='1807'> +7.1590512e+04 </wgt>
<wgt id='1808'> +7.1749844e+04 </wgt>
<wgt id='1809'> +7.1678181e+04 </wgt>
<wgt id='1810'> +7.1660375e+04 </wgt>
<wgt id='1811'> +7.1722466e+04 </wgt>
<wgt id='1812'> +7.1648177e+04 </wgt>
<wgt id='1813'> +7.1629374e+04 </wgt>
<wgt id='1814'> +7.1953462e+04 </wgt>
<wgt id='1815'> +7.1651211e+04 </wgt>
<wgt id='1816'> +7.1685135e+04 </wgt>
<wgt id='1817'> +7.1655794e+04 </wgt>
<wgt id='1818'> +7.1731676e+04 </wgt>
<wgt id='1819'> +7.1986784e+04 </wgt>
<wgt id='1820'> +7.1693132e+04 </wgt>
<wgt id='1821'> +7.1751665e+04 </wgt>
<wgt id='1822'> +7.1827507e+04 </wgt>
<wgt id='1823'> +7.1647844e+04 </wgt>
<wgt id='1824'> +7.1632549e+04 </wgt>
<wgt id='1825'> +7.1758956e+04 </wgt>
<wgt id='1826'> +7.2287751e+04 </wgt>
<wgt id='1827'> +6.7430055e+04 </wgt>
<wgt id='1828'> +6.7621455e+04 </wgt>
<wgt id='1829'> +6.7240418e+04 </wgt>
<wgt id='1830'> +6.7337359e+04 </wgt>
<wgt id='1831'> +6.7523299e+04 </wgt>
<wgt id='1832'> +6.7519517e+04 </wgt>
<wgt id='1833'> +6.7341511e+04 </wgt>
<wgt id='1834'> +6.7050212e+04 </wgt>
<wgt id='1835'> +6.7793872e+04 </wgt>
<wgt id='1836'> +6.7723335e+04 </wgt>
<wgt id='1837'> +6.7131712e+04 </wgt>
<wgt id='1838'> +6.7466449e+04 </wgt>
<wgt id='1839'> +6.7394044e+04 </wgt>
<wgt id='1840'> +6.7321206e+04 </wgt>
<wgt id='1841'> +6.7543238e+04 </wgt>
<wgt id='1842'> +6.7407443e+04 </wgt>
<wgt id='1843'> +6.7532972e+04 </wgt>
<wgt id='1844'> +6.7478723e+04 </wgt>
<wgt id='1845'> +6.7367082e+04 </wgt>
<wgt id='1846'> +6.7307498e+04 </wgt>
<wgt id='1847'> +6.7547019e+04 </wgt>
<wgt id='1848'> +6.7372875e+04 </wgt>
<wgt id='1849'> +6.7385141e+04 </wgt>
<wgt id='1850'> +6.8072273e+04 </wgt>
<wgt id='1851'> +6.6806670e+04 </wgt>
<wgt id='1852'> +6.8513086e+04 </wgt>
<wgt id='1853'> +6.6291212e+04 </wgt>
<wgt id='1854'> +6.8329945e+04 </wgt>
<wgt id='1855'> +6.6648096e+04 </wgt>
<wgt id='1856'> +7.0391419e+04 </wgt>
<wgt id='1857'> +7.0380244e+04 </wgt>
<wgt id='1858'> +7.0310419e+04 </wgt>
<wgt id='1859'> +7.0362146e+04 </wgt>
<wgt id='1860'> +7.0394031e+04 </wgt>
<wgt id='1861'> +7.0513800e+04 </wgt>
<wgt id='1862'> +6.9919285e+04 </wgt>
<wgt id='1863'> +7.0561211e+04 </wgt>
<wgt id='1864'> +7.0263950e+04 </wgt>
<wgt id='1865'> +7.0152945e+04 </wgt>
<wgt id='1866'> +7.0279196e+04 </wgt>
<wgt id='1867'> +7.0350628e+04 </wgt>
<wgt id='1868'> +7.0404901e+04 </wgt>
<wgt id='1869'> +7.0526466e+04 </wgt>
<wgt id='1870'> +7.0247725e+04 </wgt>
<wgt id='1871'> +7.0501340e+04 </wgt>
<wgt id='1872'> +7.0203612e+04 </wgt>
<wgt id='1873'> +7.0378493e+04 </wgt>
<wgt id='1874'> +7.0302862e+04 </wgt>
<wgt id='1875'> +7.0507335e+04 </wgt>
<wgt id='1876'> +7.0501166e+04 </wgt>
<wgt id='1877'> +7.0117072e+04 </wgt>
<wgt id='1878'> +7.0302086e+04 </wgt>
<wgt id='1879'> +7.0224288e+04 </wgt>
<wgt id='1880'> +7.0455291e+04 </wgt>
<wgt id='1881'> +7.0256522e+04 </wgt>
<wgt id='1882'> +7.0567974e+04 </wgt>
<wgt id='1883'> +7.0147703e+04 </wgt>
<wgt id='1884'> +7.0748231e+04 </wgt>
<wgt id='1885'> +7.0048746e+04 </wgt>
<wgt id='1886'> +8.5982233e+04 </wgt>
<wgt id='1887'> +8.2311419e+04 </wgt>
<wgt id='1888'> +6.7257648e+04 </wgt>
<wgt id='1889'> +7.1578664e+04 </wgt>
</rwgt>
</event>
<event npLO=" -1 " npNLO=" 0 ">
 5      0 +7.4519530e+04 3.00000000e+01 7.55820760e-03 1.19549560e-01
       -3 -1    0    0    0  501 +0.0000000000e+00 +0.0000000000e+00 +2.5334512544e+00 2.5334512544e+00 0.0000000000e+00 0.0000e+00 1.0000e+00
        4 -1    0    0  501    0 +0.0000000000e+00 +0.0000000000e+00 -6.1499398321e+02 6.1499398321e+02 0.0000000000e+00 0.0000e+00 -1.0000e+00
       24  2    1    2    0    0 +0.0000000000e+00 +0.0000000000e+00 -6.1246053195e+02 6.1752743446e+02 7.8944468539e+01 0.0000e+00 0.0000e+00
      -11  1    3    3    0    0 +1.4028259848e+01 +2.2446590708e+01 -7.7180272128e+01 8.1593111931e+01 0.0000000000e+00 0.0000e+00 1.0000e+00
       12  1    3    3    0    0 -1.4028259848e+01 -2.2446590708e+01 -5.3528025982e+02 5.3593432253e+02 0.0000000000e+00 0.0000e+00 -1.0000e+00
#aMCatNLO 1  0  0  2  2 0.38414864E+02 0.00000000E+00 -9  5  0 0.00000000E+00 0.00000000E+00 0.00000000E+00 0.00000000E+00 0.00000000E+00
<rwgt>
<wgt id='1001'> +7.4519530e+04 </wgt>
<wgt id='1002'> +7.2686943e+04 </wgt>
<wgt id='1003'> +7.6804480e+04 </wgt>
<wgt id='1004'> +1.0307559e+05 </wgt>
<wgt id='1005'> +9.9387981e+04 </wgt>
<wgt id='1006'> +1.0767346e+05 </wgt>
<wgt id='1007'> +5.2809953e+04 </wgt>
<wgt id='1008'> +5.2110029e+04 </wgt>
<wgt id='1009'> +5.3682648e+04 </wgt>
<wgt id='1010'> +7.4519530e+04 </wgt>
<wgt id='1011'> +7.5459766e+04 </wgt>
<wgt id='1012'> +7.4374725e+04 </wgt>
<wgt id='1013'> +7.4153449e+04 </wgt>
<wgt id='1014'> +7.1251104e+04 </wgt>
<wgt id='1015'> +7.5803935e+04 </wgt>
<wgt id='1016'> +7.3266255e+04 </wgt>
<wgt id='1017'> +7.4048485e+04 </wgt>
<wgt id='1018'> +7.5878336e+04 </wgt>
<wgt id='1019'> +7.3003345e+04 </wgt>
<wgt id='1020'> +7.6612190e+04 </wgt>
<wgt id='1021'> +7.5564821e+04 </wgt>
<wgt id='1022'> +7.2765848e+04 </wgt>
<wgt id='1023'> +7.3354503e+04 </wgt>
<wgt id='1024'> +7.4903991e+04 </wgt>
<wgt id='1025'> +7.0908291e+04 </wgt>
<wgt id='1026'> +7.6848576e+04 </wgt>
<wgt id='1027'> +7.5348544e+04 </wgt>
<wgt id='1028'> +7.6028461e+04 </wgt>
<wgt id='1029'> +7.2643878e+04 </wgt>
<wgt id='1030'> +7.4710849e+04 </wgt>
<wgt id='1031'> +7.4509381e+04 </wgt>
<wgt id='1032'> +7.2664845e+04 </wgt>
<wgt id='1033'> +7.3901431e+04 </wgt>
<wgt id='1034'> +7.5462659e+04 </wgt>
<wgt id='1035'> +7.5485124e+04 </wgt>
<wgt id='1036'> +7.3983522e+04 </wgt>
<wgt id='1037'> +7.2119704e+04 </wgt>
<wgt id='1038'> +7.5138036e+04 </wgt>
<wgt id='1039'> +7.1743460e+04 </wgt>
<wgt id='1040'> +7.4255948e+04 </wgt>
<wgt id='1041'> +7.1487540e+04 </wgt>
<wgt id='1042'> +7.5490813e+04 </wgt>
<wgt id='1043'> +7.3661479e+04 </wgt>
<wgt id='1044'> +7.2854204e+04 </wgt>
<wgt id='1045'> +7.4193785e+04 </wgt>
<wgt id='1046'> +7.5979953e+04 </wgt>
<wgt id='1047'> +7.6023660e+04 </wgt>
<wgt id='1048'> +7.3188648e+04 </wgt>
<wgt id='1049'> +7.4126509e+04 </wgt>
<wgt id='1050'> +7.2934808e+04 </wgt>
<wgt id='1051'> +7.3546420e+04 </wgt>
<wgt id='1052'> +7.4037654e+04 </wgt>
<wgt id='1053'> +7.5268017e+04 </wgt>
<wgt id='1054'> +7.4037428e+04 </wgt>
<wgt id='1055'> +7.4676780e+04 </wgt>
<wgt id='1056'> +7.4944667e+04 </wgt>
<wgt id='1057'> +7.5298717e+04 </wgt>
<wgt id='1058'> +7.3892562e+04 </wgt>
<wgt id='1059'> +7.4334348e+04 </wgt>
<wgt id='1060'> +7.4890136e+04 </wgt>
<wgt id='1061'> +7.4726655e+04 </wgt>
<wgt id='1062'> +7.3514545e+04 </wgt>
<wgt id='1063'> +7.3982898e+04 </wgt>
<wgt id='1064'> +7.3741651e+04 </wgt>
<wgt id='1065'> +7.4324690e+04 </wgt>
<wgt id='1066'> +7.3507493e+04 </wgt>
<wgt id='1067'> +7.4121370e+04 </wgt>
<wgt id='1068'> +7.3727532e+04 </wgt>
<wgt id='1069'> +7.3197945e+04 </wgt>
<wgt id='1070'> +7.4169315e+04 </wgt>
<wgt id='1071'> +7.3606619e+04 </wgt>
<wgt id='1072'> +7.3180386e+04 </wgt>
<wgt id='1073'> +7.5742093e+04 </wgt>
<wgt id='1074'> +7.5983353e+04 </wgt>
<wgt id='1075'> +7.4288739e+04 </wgt>
<wgt id='1076'> +7.2823091e+04 </wgt>
<wgt id='1077'> +7.4445204e+04 </wgt>
<wgt id='1078'> +7.3826160e+04 </wgt>
<wgt id='1079'> +7.4283254e+04 </wgt>
<wgt id='1080'> +7.3034141e+04 </wgt>
<wgt id='1081'> +7.4953307e+04 </wgt>
<wgt id='1082'> +7.5361309e+04 </wgt>
<wgt id='1083'> +7.5121555e+04 </wgt>
<wgt id='1084'> +7.5265344e+04 </wgt>
<wgt id='1085'> +7.4648173e+04 </wgt>
<wgt id='1086'> +7.4372855e+04 </wgt>
<wgt id='1087'> +7.3151424e+04 </wgt>
<wgt id='1088'> +7.3774236e+04 </wgt>
<wgt id='1089'> +7.5035774e+04 </wgt>
<wgt id='1090'> +7.4428410e+04 </wgt>
<wgt id='1091'> +7.4901785e+04 </wgt>
<wgt id='1092'> +7.3721918e+04 </wgt>
<wgt id='1093'> +7.3745644e+04 </wgt>
<wgt id='1094'> +7.3928722e+04 </wgt>
<wgt id='1095'> +7.4587686e+04 </wgt>
<wgt id='1096'> +7.3872130e+04 </wgt>
<wgt id='1097'> +7.3642164e+04 </wgt>
<wgt id='1098'> +7.4263029e+04 </wgt>
<wgt id='1099'> +7.4021627e+04 </wgt>
<wgt id='1100'> +7.5429641e+04 </wgt>
<wgt id='1101'> +7.4655277e+04 </wgt>
<wgt id='1102'> +7.4139346e+04 </wgt>
<wgt id='1103'> +7.4449013e+04 </wgt>
<wgt id='1104'> +7.3778166e+04 </wgt>
<wgt id='1105'> +7.3951091e+04 </wgt>
<wgt id='1106'> +7.5413472e+04 </wgt>
<wgt id='1107'> +7.5124295e+04 </wgt>
<wgt id='1108'> +7.4574144e+04 </wgt>
<wgt id='1109'> +7.3768859e+04 </wgt>
<wgt id='1110'> +7.4519531e+04 </wgt>
<wgt id='1111'> +6.5483281e+04 </wgt>
<wgt id='1112'> +8.2227799e+04 </wgt>
<wgt id='1113'> +7.4519531e+04 </wgt>
<wgt id='1114'> +6.1261077e+04 </wgt>
<wgt id='1115'> +8.0184723e+04 </wgt>
<wgt id='1116'> +8.0574981e+04 </wgt>
<wgt id='1117'> +7.7048895e+04 </wgt>
<wgt id='1118'> +7.7233503e+04 </wgt>
<wgt id='1119'> +7.6339149e+04 </wgt>
<wgt id='1120'> +7.2264473e+04 </wgt>
<wgt id='1121'> +8.3196673e+04 </wgt>
<wgt id='1122'> +6.9308184e+04 </wgt>
<wgt id='1123'> +7.0050214e+04 </wgt>
<wgt id='1124'> +7.8521462e+04 </wgt>
<wgt id='1125'> +7.7956544e+04 </wgt>
<wgt id='1126'> +8.1575071e+04 </wgt>
<wgt id='1127'> +7.9674617e+04 </wgt>
<wgt id='1128'> +7.3675736e+04 </wgt>
<wgt id='1129'> +8.2406030e+04 </wgt>
<wgt id='1130'> +5.8920655e+04 </wgt>
<wgt id='1131'> +8.2305505e+04 </wgt>
<wgt id='1132'> +6.8044629e+04 </wgt>
<wgt id='1133'> +7.6849135e+04 </wgt>
<wgt id='1134'> +7.3873253e+04 </wgt>
<wgt id='1135'> +7.2786414e+04 </wgt>
<wgt id='1136'> +6.6229726e+04 </wgt>
<wgt id='1137'> +7.7033633e+04 </wgt>
<wgt id='1138'> +8.0803250e+04 </wgt>
<wgt id='1139'> +6.7582453e+04 </wgt>
<wgt id='1140'> +5.0218183e+04 </wgt>
<wgt id='1141'> +7.9214388e+04 </wgt>
<wgt id='1142'> +7.5098277e+04 </wgt>
<wgt id='1143'> +6.7490965e+04 </wgt>
<wgt id='1144'> +5.9999254e+04 </wgt>
<wgt id='1145'> +9.5970873e+04 </wgt>
<wgt id='1146'> +6.2449127e+04 </wgt>
<wgt id='1147'> +8.0141876e+04 </wgt>
<wgt id='1148'> +7.8342715e+04 </wgt>
<wgt id='1149'> +8.1299826e+04 </wgt>
<wgt id='1150'> +6.9443454e+04 </wgt>
<wgt id='1151'> +7.7595723e+04 </wgt>
<wgt id='1152'> +6.2513867e+04 </wgt>
<wgt id='1153'> +8.1318054e+04 </wgt>
<wgt id='1154'> +6.2589768e+04 </wgt>
<wgt id='1155'> +8.1487012e+04 </wgt>
<wgt id='1156'> +5.9869139e+04 </wgt>
<wgt id='1157'> +6.4096987e+04 </wgt>
<wgt id='1158'> +8.9833714e+04 </wgt>
<wgt id='1159'> +6.8529248e+04 </wgt>
<wgt id='1160'> +7.9899838e+04 </wgt>
<wgt id='1161'> +7.4554050e+04 </wgt>
<wgt id='1162'> +5.9056653e+04 </wgt>
<wgt id='1163'> +7.0444245e+04 </wgt>
<wgt id='1164'> +7.0650848e+04 </wgt>
<wgt id='1165'> +7.6523709e+04 </wgt>
<wgt id='1166'> +7.1907069e+04 </wgt>
<wgt id='1167'> +6.4092956e+04 </wgt>
<wgt id='1168'> +6.4886062e+04 </wgt>
<wgt id='1169'> +6.9575168e+04 </wgt>
<wgt id='1170'> +5.5525586e+04 </wgt>
<wgt id='1171'> +6.1156778e+04 </wgt>
<wgt id='1172'> +5.6362243e+04 </wgt>
<wgt id='1173'> +5.3560417e+04 </wgt>
<wgt id='1174'> +7.2072105e+04 </wgt>
<wgt id='1175'> +7.4070084e+04 </wgt>
<wgt id='1176'> +6.6988539e+04 </wgt>
<wgt id='1177'> +9.5662501e+04 </wgt>
<wgt id='1178'> +7.4799363e+04 </wgt>
<wgt id='1179'> +7.1509880e+04 </wgt>
<wgt id='1180'> +8.2605666e+04 </wgt>
<wgt id='1181'> +5.7501309e+04 </wgt>
<wgt id='1182'> +7.7799885e+04 </wgt>
<wgt id='1183'> +8.3210751e+04 </wgt>
<wgt id='1184'> +5.6413666e+04 </wgt>
<wgt id='1185'> +6.2809876e+04 </wgt>
<wgt id='1186'> +1.0587786e+05 </wgt>
<wgt id='1187'> +9.9850408e+04 </wgt>
<wgt id='1188'> +7.7352548e+04 </wgt>
<wgt id='1189'> +5.2457976e+04 </wgt>
<wgt id='1190'> +9.4367726e+04 </wgt>
<wgt id='1191'> +6.9269750e+04 </wgt>
<wgt id='1192'> +7.9591647e+04 </wgt>
<wgt id='1193'> +6.5446837e+04 </wgt>
<wgt id='1194'> +8.0152646e+04 </wgt>
<wgt id='1195'> +8.2406030e+04 </wgt>
<wgt id='1196'> +1.0095044e+05 </wgt>
<wgt id='1197'> +8.2138868e+04 </wgt>
<wgt id='1198'> +7.7848959e+04 </wgt>
<wgt id='1199'> +6.9664252e+04 </wgt>
<wgt id='1200'> +8.1492948e+04 </wgt>
<wgt id='1201'> +7.5068928e+04 </wgt>
<wgt id='1202'> +1.1277122e+05 </wgt>
<wgt id='1203'> +8.1171224e+04 </wgt>
<wgt id='1204'> +7.5354504e+04 </wgt>
<wgt id='1205'> +9.1098664e+04 </wgt>
<wgt id='1206'> +7.8467546e+04 </wgt>
<wgt id='1207'> +8.1539733e+04 </wgt>
<wgt id='1208'> +8.8489817e+04 </wgt>
<wgt id='1209'> +7.3519509e+04 </wgt>
<wgt id='1210'> +6.4978352e+04 </wgt>
<wgt id='1211'> +6.4100042e+04 </wgt>
<wgt id='1212'> +8.1115050e+04 </wgt>
<wgt id='1213'> +7.6756084e+04 </wgt>
<wgt id='1214'> +7.3394923e+04 </wgt>
<wgt id='1215'> +3.0230159e+04 </wgt>
<wgt id='1216'> +3.9407035e+04 </wgt>
<wgt id='1217'> +4.7626430e+04 </wgt>
<wgt id='1218'> +5.5323811e+04 </wgt>
<wgt id='1219'> +6.8075043e+04 </wgt>
<wgt id='1220'> +7.6880643e+04 </wgt>
<wgt id='1221'> +9.2462346e+04 </wgt>
<wgt id='1222'> +1.0356691e+05 </wgt>
<wgt id='1223'> +6.0802041e+04 </wgt>
<wgt id='1224'> +6.0612490e+04 </wgt>
<wgt id='1225'> +6.0792770e+04 </wgt>
<wgt id='1226'> +6.0137461e+04 </wgt>
<wgt id='1227'> +5.7908043e+04 </wgt>
<wgt id='1228'> +6.0023801e+04 </wgt>
<wgt id='1229'> +6.0316719e+04 </wgt>
<wgt id='1230'> +5.9321436e+04 </wgt>
<wgt id='1231'> +6.0661910e+04 </wgt>
<wgt id='1232'> +5.9490551e+04 </wgt>
<wgt id='1233'> +6.2867644e+04 </wgt>
<wgt id='1234'> +6.1279389e+04 </wgt>
<wgt id='1235'> +6.0840831e+04 </wgt>
<wgt id='1236'> +6.0664534e+04 </wgt>
<wgt id='1237'> +5.9092110e+04 </wgt>
<wgt id='1238'> +6.1677426e+04 </wgt>
<wgt id='1239'> +6.0109141e+04 </wgt>
<wgt id='1240'> +6.1294396e+04 </wgt>
<wgt id='1241'> +6.0833679e+04 </wgt>
<wgt id='1242'> +6.1699158e+04 </wgt>
<wgt id='1243'> +6.1973286e+04 </wgt>
<wgt id='1244'> +5.9461478e+04 </wgt>
<wgt id='1245'> +6.1065061e+04 </wgt>
<wgt id='1246'> +5.9780074e+04 </wgt>
<wgt id='1247'> +5.9603465e+04 </wgt>
<wgt id='1248'> +6.2095680e+04 </wgt>
<wgt id='1249'> +6.0697446e+04 </wgt>
<wgt id='1250'> +6.1836810e+04 </wgt>
<wgt id='1251'> +5.9819071e+04 </wgt>
<wgt id='1252'> +5.8033748e+04 </wgt>
<wgt id='1253'> +6.3389750e+04 </wgt>
<wgt id='1254'> +6.2786256e+04 </wgt>
<wgt id='1255'> +6.0779722e+04 </wgt>
<wgt id='1256'> +6.0900054e+04 </wgt>
<wgt id='1257'> +6.1837409e+04 </wgt>
<wgt id='1258'> +6.2074479e+04 </wgt>
<wgt id='1259'> +6.2119184e+04 </wgt>
<wgt id='1260'> +6.1250954e+04 </wgt>
<wgt id='1261'> +6.1747829e+04 </wgt>
<wgt id='1262'> +6.1506588e+04 </wgt>
<wgt id='1263'> +6.1034602e+04 </wgt>
<wgt id='1264'> +6.1124407e+04 </wgt>
<wgt id='1265'> +6.0972885e+04 </wgt>
<wgt id='1266'> +5.9222076e+04 </wgt>
<wgt id='1267'> +6.2126963e+04 </wgt>
<wgt id='1268'> +6.0890327e+04 </wgt>
<wgt id='1269'> +6.1131645e+04 </wgt>
<wgt id='1270'> +6.0022828e+04 </wgt>
<wgt id='1271'> +6.0690552e+04 </wgt>
<wgt id='1272'> +6.0505740e+04 </wgt>
<wgt id='1273'> +6.0313963e+04 </wgt>
<wgt id='1274'> +5.9704217e+04 </wgt>
<wgt id='1275'> +6.1350107e+04 </wgt>
<wgt id='1276'> +6.1792154e+04 </wgt>
<wgt id='1277'> +6.1422955e+04 </wgt>
<wgt id='1278'> +6.0726590e+04 </wgt>
<wgt id='1279'> +6.1616089e+04 </wgt>
<wgt id='1280'> +6.1654236e+04 </wgt>
<wgt id='1281'> +6.2405164e+04 </wgt>
<wgt id='1282'> +5.9525208e+04 </wgt>
<wgt id='1283'> +5.9904843e+04 </wgt>
<wgt id='1284'> +6.0359686e+04 </wgt>
<wgt id='1285'> +6.0453928e+04 </wgt>
<wgt id='1286'> +5.9651887e+04 </wgt>
<wgt id='1287'> +6.1487617e+04 </wgt>
<wgt id='1288'> +5.9998537e+04 </wgt>
<wgt id='1289'> +6.0126030e+04 </wgt>
<wgt id='1290'> +6.2112071e+04 </wgt>
<wgt id='1291'> +6.0363752e+04 </wgt>
<wgt id='1292'> +6.2126828e+04 </wgt>
<wgt id='1293'> +6.0981935e+04 </wgt>
<wgt id='1294'> +6.1037234e+04 </wgt>
<wgt id='1295'> +5.9711854e+04 </wgt>
<wgt id='1296'> +6.1428722e+04 </wgt>
<wgt id='1297'> +5.9736096e+04 </wgt>
<wgt id='1298'> +6.1434752e+04 </wgt>
<wgt id='1299'> +6.0681479e+04 </wgt>
<wgt id='1300'> +5.9899877e+04 </wgt>
<wgt id='1301'> +6.0482149e+04 </wgt>
<wgt id='1302'> +6.1540245e+04 </wgt>
<wgt id='1303'> +6.1200583e+04 </wgt>
<wgt id='1304'> +6.0320950e+04 </wgt>
<wgt id='1305'> +6.1609743e+04 </wgt>
<wgt id='1306'> +6.0669428e+04 </wgt>
<wgt id='1307'> +6.1401454e+04 </wgt>
<wgt id='1308'> +6.1015636e+04 </wgt>
<wgt id='1309'> +6.1249482e+04 </wgt>
<wgt id='1310'> +6.0591402e+04 </wgt>
<wgt id='1311'> +6.1994517e+04 </wgt>
<wgt id='1312'> +6.1549571e+04 </wgt>
<wgt id='1313'> +6.0963930e+04 </wgt>
<wgt id='1314'> +5.9949789e+04 </wgt>
<wgt id='1315'> +6.1145081e+04 </wgt>
<wgt id='1316'> +6.1220112e+04 </wgt>
<wgt id='1317'> +5.9862994e+04 </wgt>
<wgt id='1318'> +5.9410553e+04 </wgt>
<wgt id='1319'> +6.1825097e+04 </wgt>
<wgt id='1320'> +6.1461579e+04 </wgt>
<wgt id='1321'> +6.0907028e+04 </wgt>
<wgt id='1322'> +6.0009076e+04 </wgt>
<wgt id='1323'> +6.0963000e+04 </wgt>
<wgt id='1324'> +5.0197391e+04 </wgt>
<wgt id='1325'> +6.8226379e+04 </wgt>
<wgt id='1326'> +9.5620720e+04 </wgt>
<wgt id='1327'> +8.6776495e+04 </wgt>
<wgt id='1328'> +8.2317617e+04 </wgt>
<wgt id='1329'> +8.1474447e+04 </wgt>
<wgt id='1330'> +8.5585863e+04 </wgt>
<wgt id='1331'> +7.8358628e+04 </wgt>
<wgt id='1332'> +8.4256885e+04 </wgt>
<wgt id='1333'> +8.2311797e+04 </wgt>
<wgt id='1334'> +8.1261305e+04 </wgt>
<wgt id='1335'> +9.4274158e+04 </wgt>
<wgt id='1336'> +7.6579149e+04 </wgt>
<wgt id='1337'> +8.6679778e+04 </wgt>
<wgt id='1338'> +8.0185547e+04 </wgt>
<wgt id='1339'> +8.1245098e+04 </wgt>
<wgt id='1340'> +8.7813764e+04 </wgt>
<wgt id='1341'> +9.0308759e+04 </wgt>
<wgt id='1342'> +8.4395150e+04 </wgt>
<wgt id='1343'> +8.0649046e+04 </wgt>
<wgt id='1344'> +8.0675989e+04 </wgt>
<wgt id='1345'> +8.0867888e+04 </wgt>
<wgt id='1346'> +8.8646735e+04 </wgt>
<wgt id='1347'> +8.2025245e+04 </wgt>
<wgt id='1348'> +8.1688104e+04 </wgt>
<wgt id='1349'> +7.6855329e+04 </wgt>
<wgt id='1350'> +8.1242538e+04 </wgt>
<wgt id='1351'> +8.2999424e+04 </wgt>
<wgt id='1352'> +8.8880249e+04 </wgt>
<wgt id='1353'> +7.9709128e+04 </wgt>
<wgt id='1354'> +8.1343047e+04 </wgt>
<wgt id='1355'> +7.9722965e+04 </wgt>
<wgt id='1356'> +7.9674916e+04 </wgt>
<wgt id='1357'> +8.0177914e+04 </wgt>
<wgt id='1358'> +8.1676919e+04 </wgt>
<wgt id='1359'> +8.3964237e+04 </wgt>
<wgt id='1360'> +7.9801960e+04 </wgt>
<wgt id='1361'> +8.4011304e+04 </wgt>
<wgt id='1362'> +8.4494286e+04 </wgt>
<wgt id='1363'> +8.1298919e+04 </wgt>
<wgt id='1364'> +7.9950253e+04 </wgt>
<wgt id='1365'> +8.7700524e+04 </wgt>
<wgt id='1366'> +7.6819978e+04 </wgt>
<wgt id='1367'> +8.2093654e+04 </wgt>
<wgt id='1368'> +8.5195244e+04 </wgt>
<wgt id='1369'> +8.3447812e+04 </wgt>
<wgt id='1370'> +8.1341156e+04 </wgt>
<wgt id='1371'> +8.1340220e+04 </wgt>
<wgt id='1372'> +7.8454944e+04 </wgt>
<wgt id='1373'> +8.7064314e+04 </wgt>
<wgt id='1374'> +7.8780215e+04 </wgt>
<wgt id='1375'> +8.4898441e+04 </wgt>
<wgt id='1376'> +8.0899684e+04 </wgt>
<wgt id='1377'> +8.3294610e+04 </wgt>
<wgt id='1378'> +8.4214306e+04 </wgt>
<wgt id='1379'> +8.4432973e+04 </wgt>
<wgt id='1380'> +8.2134683e+04 </wgt>
<wgt id='1381'> +7.4321648e+04 </wgt>
<wgt id='1382'> +7.7690772e+04 </wgt>
<wgt id='1383'> +8.2000784e+04 </wgt>
<wgt id='1384'> +7.9625673e+04 </wgt>
<wgt id='1385'> +7.9233168e+04 </wgt>
<wgt id='1386'> +8.6408617e+04 </wgt>
<wgt id='1387'> +8.3032880e+04 </wgt>
<wgt id='1388'> +7.9557514e+04 </wgt>
<wgt id='1389'> +8.2946446e+04 </wgt>
<wgt id='1390'> +8.2493428e+04 </wgt>
<wgt id='1391'> +8.4453874e+04 </wgt>
<wgt id='1392'> +8.0700435e+04 </wgt>
<wgt id='1393'> +8.1552263e+04 </wgt>
<wgt id='1394'> +8.7700524e+04 </wgt>
<wgt id='1395'> +8.1450637e+04 </wgt>
<wgt id='1396'> +8.2260986e+04 </wgt>
<wgt id='1397'> +8.0797264e+04 </wgt>
<wgt id='1398'> +8.3122939e+04 </wgt>
<wgt id='1399'> +8.5204254e+04 </wgt>
<wgt id='1400'> +8.2261093e+04 </wgt>
<wgt id='1401'> +8.3546272e+04 </wgt>
<wgt id='1402'> +7.9103036e+04 </wgt>
<wgt id='1403'> +7.9843824e+04 </wgt>
<wgt id='1404'> +8.0362573e+04 </wgt>
<wgt id='1405'> +8.3191492e+04 </wgt>
<wgt id='1406'> +8.1461638e+04 </wgt>
<wgt id='1407'> +7.8458895e+04 </wgt>
<wgt id='1408'> +8.1074680e+04 </wgt>
<wgt id='1409'> +7.9750156e+04 </wgt>
<wgt id='1410'> +8.1175143e+04 </wgt>
<wgt id='1411'> +8.1811083e+04 </wgt>
<wgt id='1412'> +8.3735777e+04 </wgt>
<wgt id='1413'> +8.2122561e+04 </wgt>
<wgt id='1414'> +8.2670827e+04 </wgt>
<wgt id='1415'> +8.3543964e+04 </wgt>
<wgt id='1416'> +8.7485148e+04 </wgt>
<wgt id='1417'> +7.9282260e+04 </wgt>
<wgt id='1418'> +7.8004479e+04 </wgt>
<wgt id='1419'> +8.6098654e+04 </wgt>
<wgt id='1420'> +7.8185016e+04 </wgt>
<wgt id='1421'> +8.3918486e+04 </wgt>
<wgt id='1422'> +8.4076271e+04 </wgt>
<wgt id='1423'> +8.5458777e+04 </wgt>
<wgt id='1424'> +8.1662974e+04 </wgt>
<wgt id='1425'> +8.3450415e+04 </wgt>
<wgt id='1426'> +8.1597019e+04 </wgt>
<wgt id='1427'> +8.1721944e+04 </wgt>
<wgt id='1428'> +8.4756898e+04 </wgt>
<wgt id='1429'> +7.9737812e+04 </wgt>
<wgt id='1430'> +8.5600693e+04 </wgt>
<wgt id='1431'> +8.2672613e+04 </wgt>
<wgt id='1432'> +8.2808113e+04 </wgt>
<wgt id='1433'> +8.2714965e+04 </wgt>
<wgt id='1434'> +8.2652318e+04 </wgt>
<wgt id='1435'> +8.2248396e+04 </wgt>
<wgt id='1436'> +8.3449451e+04 </wgt>
<wgt id='1437'> +8.2880957e+04 </wgt>
<wgt id='1438'> +8.2419335e+04 </wgt>
<wgt id='1439'> +8.2833369e+04 </wgt>
<wgt id='1440'> +8.2675377e+04 </wgt>
<wgt id='1441'> +8.2650446e+04 </wgt>
<wgt id='1442'> +8.2285650e+04 </wgt>
<wgt id='1443'> +8.2916970e+04 </wgt>
<wgt id='1444'> +8.2749813e+04 </wgt>
<wgt id='1445'> +8.2773441e+04 </wgt>
<wgt id='1446'> +8.2950151e+04 </wgt>
<wgt id='1447'> +8.2175638e+04 </wgt>
<wgt id='1448'> +8.2714349e+04 </wgt>
<wgt id='1449'> +8.2488569e+04 </wgt>
<wgt id='1450'> +8.3364515e+04 </wgt>
<wgt id='1451'> +8.3372426e+04 </wgt>
<wgt id='1452'> +8.2638698e+04 </wgt>
<wgt id='1453'> +8.3709368e+04 </wgt>
<wgt id='1454'> +8.2061002e+04 </wgt>
<wgt id='1455'> +8.2646128e+04 </wgt>
<wgt id='1456'> +8.3095436e+04 </wgt>
<wgt id='1457'> +8.2460392e+04 </wgt>
<wgt id='1458'> +8.3595327e+04 </wgt>
<wgt id='1459'> +8.2958462e+04 </wgt>
<wgt id='1460'> +8.2217805e+04 </wgt>
<wgt id='1461'> +8.2690700e+04 </wgt>
<wgt id='1462'> +8.3233362e+04 </wgt>
<wgt id='1463'> +8.3404541e+04 </wgt>
<wgt id='1464'> +8.3415067e+04 </wgt>
<wgt id='1465'> +8.1960560e+04 </wgt>
<wgt id='1466'> +8.2984988e+04 </wgt>
<wgt id='1467'> +8.2299489e+04 </wgt>
<wgt id='1468'> +8.2655541e+04 </wgt>
<wgt id='1469'> +8.2902639e+04 </wgt>
<wgt id='1470'> +8.2488072e+04 </wgt>
<wgt id='1471'> +8.2213198e+04 </wgt>
<wgt id='1472'> +8.2570198e+04 </wgt>
<wgt id='1473'> +8.2276784e+04 </wgt>
<wgt id='1474'> +8.2432653e+04 </wgt>
<wgt id='1475'> +8.3120098e+04 </wgt>
<wgt id='1476'> +8.2569703e+04 </wgt>
<wgt id='1477'> +8.2451648e+04 </wgt>
<wgt id='1478'> +8.2306343e+04 </wgt>
<wgt id='1479'> +8.2472390e+04 </wgt>
<wgt id='1480'> +8.2571478e+04 </wgt>
<wgt id='1481'> +8.3142010e+04 </wgt>
<wgt id='1482'> +7.9737812e+04 </wgt>
<wgt id='1483'> +8.5600693e+04 </wgt>
<wgt id='1484'> +8.7183816e+04 </wgt>
<wgt id='1485'> +8.6554749e+04 </wgt>
<wgt id='1486'> +8.5137332e+04 </wgt>
<wgt id='1487'> +8.6746562e+04 </wgt>
<wgt id='1488'> +8.8866123e+04 </wgt>
<wgt id='1489'> +8.7846260e+04 </wgt>
<wgt id='1490'> +8.7467068e+04 </wgt>
<wgt id='1491'> +8.8231733e+04 </wgt>
<wgt id='1492'> +8.7103001e+04 </wgt>
<wgt id='1493'> +8.8866578e+04 </wgt>
<wgt id='1494'> +8.8165298e+04 </wgt>
<wgt id='1495'> +8.8416757e+04 </wgt>
<wgt id='1496'> +8.7567812e+04 </wgt>
<wgt id='1497'> +9.0315840e+04 </wgt>
<wgt id='1498'> +8.6548657e+04 </wgt>
<wgt id='1499'> +8.6306555e+04 </wgt>
<wgt id='1500'> +8.6850899e+04 </wgt>
<wgt id='1501'> +8.6315484e+04 </wgt>
<wgt id='1502'> +8.5720867e+04 </wgt>
<wgt id='1503'> +8.6209294e+04 </wgt>
<wgt id='1504'> +8.7230969e+04 </wgt>
<wgt id='1505'> +8.6260221e+04 </wgt>
<wgt id='1506'> +8.6877679e+04 </wgt>
<wgt id='1507'> +8.6598085e+04 </wgt>
<wgt id='1508'> +8.7216015e+04 </wgt>
<wgt id='1509'> +8.6691502e+04 </wgt>
<wgt id='1510'> +8.6047493e+04 </wgt>
<wgt id='1511'> +8.5773377e+04 </wgt>
<wgt id='1512'> +8.6933220e+04 </wgt>
<wgt id='1513'> +8.6923630e+04 </wgt>
<wgt id='1514'> +8.5958052e+04 </wgt>
<wgt id='1515'> +8.7565215e+04 </wgt>
<wgt id='1516'> +8.6581482e+04 </wgt>
<wgt id='1517'> +8.6716050e+04 </wgt>
<wgt id='1518'> +8.8547553e+04 </wgt>
<wgt id='1519'> +8.8622665e+04 </wgt>
<wgt id='1520'> +8.5558308e+04 </wgt>
<wgt id='1521'> +8.6465765e+04 </wgt>
<wgt id='1522'> +8.7127771e+04 </wgt>
<wgt id='1523'> +8.6670970e+04 </wgt>
<wgt id='1524'> +8.7162944e+04 </wgt>
<wgt id='1525'> +8.6403348e+04 </wgt>
<wgt id='1526'> +8.5367376e+04 </wgt>
<wgt id='1527'> +8.8219244e+04 </wgt>
<wgt id='1528'> +8.6707465e+04 </wgt>
<wgt id='1529'> +8.7934669e+04 </wgt>
<wgt id='1530'> +8.7439679e+04 </wgt>
<wgt id='1531'> +8.6385785e+04 </wgt>
<wgt id='1532'> +8.7821907e+04 </wgt>
<wgt id='1533'> +8.9087617e+04 </wgt>
<wgt id='1534'> +8.8023241e+04 </wgt>
<wgt id='1535'> +8.6886253e+04 </wgt>
<wgt id='1536'> +8.7220853e+04 </wgt>
<wgt id='1537'> +8.5028262e+04 </wgt>
<wgt id='1538'> +8.8383748e+04 </wgt>
<wgt id='1539'> +8.7472564e+04 </wgt>
<wgt id='1540'> +8.8550905e+04 </wgt>
<wgt id='1541'> +8.9546610e+04 </wgt>
<wgt id='1542'> +8.8980260e+04 </wgt>
<wgt id='1543'> +8.6829524e+04 </wgt>
<wgt id='1544'> +8.7934623e+04 </wgt>
<wgt id='1545'> +8.5132292e+04 </wgt>
<wgt id='1546'> +8.8527046e+04 </wgt>
<wgt id='1547'> +8.6501894e+04 </wgt>
<wgt id='1548'> +8.7034642e+04 </wgt>
<wgt id='1549'> +9.0637191e+04 </wgt>
<wgt id='1550'> +8.8176058e+04 </wgt>
<wgt id='1551'> +8.8044693e+04 </wgt>
<wgt id='1552'> +8.6792239e+04 </wgt>
<wgt id='1553'> +8.8270354e+04 </wgt>
<wgt id='1554'> +8.5012035e+04 </wgt>
<wgt id='1555'> +8.7181071e+04 </wgt>
<wgt id='1556'> +8.5437411e+04 </wgt>
<wgt id='1557'> +8.8125595e+04 </wgt>
<wgt id='1558'> +8.6726882e+04 </wgt>
<wgt id='1559'> +8.8055664e+04 </wgt>
<wgt id='1560'> +8.4524054e+04 </wgt>
<wgt id='1561'> +8.7605273e+04 </wgt>
<wgt id='1562'> +9.0091231e+04 </wgt>
<wgt id='1563'> +8.6108958e+04 </wgt>
<wgt id='1564'> +8.7168545e+04 </wgt>
<wgt id='1565'> +8.6753198e+04 </wgt>
<wgt id='1566'> +9.0488306e+04 </wgt>
<wgt id='1567'> +8.9301349e+04 </wgt>
<wgt id='1568'> +8.6685209e+04 </wgt>
<wgt id='1569'> +8.7191174e+04 </wgt>
<wgt id='1570'> +8.5731626e+04 </wgt>
<wgt id='1571'> +8.8461298e+04 </wgt>
<wgt id='1572'> +8.6337096e+04 </wgt>
<wgt id='1573'> +8.6884083e+04 </wgt>
<wgt id='1574'> +9.0509249e+04 </wgt>
<wgt id='1575'> +8.4656779e+04 </wgt>
<wgt id='1576'> +8.6595885e+04 </wgt>
<wgt id='1577'> +8.6560152e+04 </wgt>
<wgt id='1578'> +8.2811795e+04 </wgt>
<wgt id='1579'> +8.7611011e+04 </wgt>
<wgt id='1580'> +8.7288615e+04 </wgt>
<wgt id='1581'> +8.6963265e+04 </wgt>
<wgt id='1582'> +8.6455251e+04 </wgt>
<wgt id='1583'> +8.4901161e+04 </wgt>
<wgt id='1584'> +8.8132560e+04 </wgt>
<wgt id='1585'> +7.3654992e+04 </wgt>
<wgt id='1586'> +5.5343821e+04 </wgt>
<wgt id='1587'> +7.7560666e+04 </wgt>
<wgt id='1588'> +7.9737812e+04 </wgt>
<wgt id='1589'> +8.1577547e+04 </wgt>
<wgt id='1590'> +8.3605909e+04 </wgt>
<wgt id='1591'> +8.5600693e+04 </wgt>
<wgt id='1592'> +8.7883889e+04 </wgt>
<wgt id='1593'> +9.5807813e+04 </wgt>
<wgt id='1594'> +9.4714454e+04 </wgt>
<wgt id='1595'> +9.6501894e+04 </wgt>
<wgt id='1596'> +1.0052474e+05 </wgt>
<wgt id='1597'> +9.1870087e+04 </wgt>
<wgt id='1598'> +1.0240204e+05 </wgt>
<wgt id='1599'> +9.2595712e+04 </wgt>
<wgt id='1600'> +1.0091980e+05 </wgt>
<wgt id='1601'> +9.1771810e+04 </wgt>
<wgt id='1602'> +9.6233570e+04 </wgt>
<wgt id='1603'> +9.5587758e+04 </wgt>
<wgt id='1604'> +9.4935598e+04 </wgt>
<wgt id='1605'> +9.8290343e+04 </wgt>
<wgt id='1606'> +9.6275558e+04 </wgt>
<wgt id='1607'> +9.5093637e+04 </wgt>
<wgt id='1608'> +9.9568506e+04 </wgt>
<wgt id='1609'> +9.3414758e+04 </wgt>
<wgt id='1610'> +9.6251224e+04 </wgt>
<wgt id='1611'> +9.5339827e+04 </wgt>
<wgt id='1612'> +9.5824996e+04 </wgt>
<wgt id='1613'> +9.5394023e+04 </wgt>
<wgt id='1614'> +9.4619923e+04 </wgt>
<wgt id='1615'> +9.8090959e+04 </wgt>
<wgt id='1616'> +9.8662420e+04 </wgt>
<wgt id='1617'> +9.2579601e+04 </wgt>
<wgt id='1618'> +9.5454969e+04 </wgt>
<wgt id='1619'> +9.7232968e+04 </wgt>
<wgt id='1620'> +9.2516837e+04 </wgt>
<wgt id='1621'> +1.0085519e+05 </wgt>
<wgt id='1622'> +9.5030605e+04 </wgt>
<wgt id='1623'> +9.5259240e+04 </wgt>
<wgt id='1624'> +9.4202618e+04 </wgt>
<wgt id='1625'> +9.8106515e+04 </wgt>
<wgt id='1626'> +9.6818852e+04 </wgt>
<wgt id='1627'> +9.3586044e+04 </wgt>
<wgt id='1628'> +9.2264872e+04 </wgt>
<wgt id='1629'> +1.0149098e+05 </wgt>
<wgt id='1630'> +9.4072892e+04 </wgt>
<wgt id='1631'> +9.8935948e+04 </wgt>
<wgt id='1632'> +9.3387087e+04 </wgt>
<wgt id='1633'> +1.0067200e+05 </wgt>
<wgt id='1634'> +9.6962985e+04 </wgt>
<wgt id='1635'> +9.4778856e+04 </wgt>
<wgt id='1636'> +1.0420044e+05 </wgt>
<wgt id='1637'> +9.0787874e+04 </wgt>
<wgt id='1638'> +9.2831931e+04 </wgt>
<wgt id='1639'> +9.8365292e+04 </wgt>
<wgt id='1640'> +9.3223683e+04 </wgt>
<wgt id='1641'> +9.8297892e+04 </wgt>
<wgt id='1642'> +1.0335667e+05 </wgt>
<wgt id='1643'> +9.1234356e+04 </wgt>
<wgt id='1644'> +9.3668849e+04 </wgt>
<wgt id='1645'> +9.9404286e+04 </wgt>
<wgt id='1646'> +1.0146370e+05 </wgt>
<wgt id='1647'> +9.2396457e+04 </wgt>
<wgt id='1648'> +9.6440783e+04 </wgt>
<wgt id='1649'> +9.5644320e+04 </wgt>
<wgt id='1650'> +9.6571789e+04 </wgt>
<wgt id='1651'> +9.4378873e+04 </wgt>
<wgt id='1652'> +8.8829752e+04 </wgt>
<wgt id='1653'> +9.2310538e+04 </wgt>
<wgt id='1654'> +9.9312781e+04 </wgt>
<wgt id='1655'> +1.0284318e+05 </wgt>
<wgt id='1656'> +9.6414511e+04 </wgt>
<wgt id='1657'> +9.6357467e+04 </wgt>
<wgt id='1658'> +9.5868769e+04 </wgt>
<wgt id='1659'> +9.6510579e+04 </wgt>
<wgt id='1660'> +9.6277661e+04 </wgt>
<wgt id='1661'> +9.6632396e+04 </wgt>
<wgt id='1662'> +9.5736250e+04 </wgt>
<wgt id='1663'> +9.7443813e+04 </wgt>
<wgt id='1664'> +9.4648236e+04 </wgt>
<wgt id='1665'> +9.5080501e+04 </wgt>
<wgt id='1666'> +9.6892413e+04 </wgt>
<wgt id='1667'> +9.8775879e+04 </wgt>
<wgt id='1668'> +9.4741675e+04 </wgt>
<wgt id='1669'> +9.8336742e+04 </wgt>
<wgt id='1670'> +9.4308096e+04 </wgt>
<wgt id='1671'> +9.5225938e+04 </wgt>
<wgt id='1672'> +9.8599931e+04 </wgt>
<wgt id='1673'> +9.5121707e+04 </wgt>
<wgt id='1674'> +9.7507948e+04 </wgt>
<wgt id='1675'> +9.3842985e+04 </wgt>
<wgt id='1676'> +9.9073887e+04 </wgt>
<wgt id='1677'> +9.8138599e+04 </wgt>
<wgt id='1678'> +9.5167445e+04 </wgt>
<wgt id='1679'> +9.3689027e+04 </wgt>
<wgt id='1680'> +9.9921545e+04 </wgt>
<wgt id='1681'> +9.5991800e+04 </wgt>
<wgt id='1682'> +9.6407145e+04 </wgt>
<wgt id='1683'> +9.4919079e+04 </wgt>
<wgt id='1684'> +9.8046454e+04 </wgt>
<wgt id='1685'> +9.3022036e+04 </wgt>
<wgt id='1686'> +9.9661734e+04 </wgt>
<wgt id='1687'> +9.4524569e+04 </wgt>
<wgt id='1688'> +9.8950623e+04 </wgt>
<wgt id='1689'> +9.4621426e+04 </wgt>
<wgt id='1690'> +9.8208466e+04 </wgt>
<wgt id='1691'> +9.4133882e+04 </wgt>
<wgt id='1692'> +9.9093100e+04 </wgt>
<wgt id='1693'> +9.2246051e+04 </wgt>
<wgt id='1694'> +1.0315538e+05 </wgt>
<wgt id='1695'> +9.5763941e+04 </wgt>
<wgt id='1696'> +9.5632534e+04 </wgt>
<wgt id='1697'> +9.4833855e+04 </wgt>
<wgt id='1698'> +9.8503223e+04 </wgt>
<wgt id='1699'> +9.9190426e+04 </wgt>
<wgt id='1700'> +9.2786501e+04 </wgt>
<wgt id='1701'> +1.0104755e+05 </wgt>
<wgt id='1702'> +9.3270377e+04 </wgt>
<wgt id='1703'> +9.8636376e+04 </wgt>
<wgt id='1704'> +9.4820205e+04 </wgt>
<wgt id='1705'> +9.4646687e+04 </wgt>
<wgt id='1706'> +9.9001332e+04 </wgt>
<wgt id='1707'> +9.5020362e+04 </wgt>
<wgt id='1708'> +9.7377138e+04 </wgt>
<wgt id='1709'> +9.9402796e+04 </wgt>
<wgt id='1710'> +9.4133386e+04 </wgt>
<wgt id='1711'> +1.0007288e+05 </wgt>
<wgt id='1712'> +9.3708658e+04 </wgt>
<wgt id='1713'> +9.6132846e+04 </wgt>
<wgt id='1714'> +9.5344153e+04 </wgt>
<wgt id='1715'> +9.8618558e+04 </wgt>
<wgt id='1716'> +9.7803182e+04 </wgt>
<wgt id='1717'> +9.3666813e+04 </wgt>
<wgt id='1718'> +9.3565265e+04 </wgt>
<wgt id='1719'> +9.3796660e+04 </wgt>
<wgt id='1720'> +9.3632908e+04 </wgt>
<wgt id='1721'> +9.3697761e+04 </wgt>
<wgt id='1722'> +9.4148641e+04 </wgt>
<wgt id='1723'> +9.2878086e+04 </wgt>
<wgt id='1724'> +9.4394116e+04 </wgt>
<wgt id='1725'> +9.3076607e+04 </wgt>
<wgt id='1726'> +9.4227927e+04 </wgt>
<wgt id='1727'> +9.3089022e+04 </wgt>
<wgt id='1728'> +9.6218278e+04 </wgt>
<wgt id='1729'> +9.1201848e+04 </wgt>
<wgt id='1730'> +9.1475431e+04 </wgt>
<wgt id='1731'> +9.5225921e+04 </wgt>
<wgt id='1732'> +9.2357882e+04 </wgt>
<wgt id='1733'> +9.2357882e+04 </wgt>
<wgt id='1734'> +9.5046679e+04 </wgt>
<wgt id='1735'> +9.2741001e+04 </wgt>
<wgt id='1736'> +9.4753038e+04 </wgt>
<wgt id='1737'> +9.2168403e+04 </wgt>
<wgt id='1738'> +9.1594361e+04 </wgt>
<wgt id='1739'> +9.7284613e+04 </wgt>
<wgt id='1740'> +9.3808394e+04 </wgt>
<wgt id='1741'> +9.3341872e+04 </wgt>
<wgt id='1742'> +9.4118153e+04 </wgt>
<wgt id='1743'> +9.3203287e+04 </wgt>
<wgt id='1744'> +9.3935042e+04 </wgt>
<wgt id='1745'> +9.2943865e+04 </wgt>
<wgt id='1746'> +9.2046309e+04 </wgt>
<wgt id='1747'> +9.4642555e+04 </wgt>
<wgt id='1748'> +9.3689292e+04 </wgt>
<wgt id='1749'> +9.3588565e+04 </wgt>
<wgt id='1750'> +9.3127151e+04 </wgt>
<wgt id='1751'> +9.4250216e+04 </wgt>
<wgt id='1752'> +9.4274460e+04 </wgt>
<wgt id='1753'> +9.2845659e+04 </wgt>
<wgt id='1754'> +9.3016629e+04 </wgt>
<wgt id='1755'> +9.4034466e+04 </wgt>
<wgt id='1756'> +9.2799386e+04 </wgt>
<wgt id='1757'> +9.5956508e+04 </wgt>
<wgt id='1758'> +9.2061652e+04 </wgt>
<wgt id='1759'> +9.4961587e+04 </wgt>
<wgt id='1760'> +9.4203198e+04 </wgt>
<wgt id='1761'> +9.3378335e+04 </wgt>
<wgt id='1762'> +9.2471495e+04 </wgt>
<wgt id='1763'> +9.6990210e+04 </wgt>
<wgt id='1764'> +9.3797211e+04 </wgt>
<wgt id='1765'> +9.3106332e+04 </wgt>
<wgt id='1766'> +9.3748444e+04 </wgt>
<wgt id='1767'> +9.3781664e+04 </wgt>
<wgt id='1768'> +9.3266930e+04 </wgt>
<wgt id='1769'> +9.4106943e+04 </wgt>
<wgt id='1770'> +9.4515772e+04 </wgt>
<wgt id='1771'> +9.3487201e+04 </wgt>
<wgt id='1772'> +9.3319309e+04 </wgt>
<wgt id='1773'> +9.4752193e+04 </wgt>
<wgt id='1774'> +9.4466492e+04 </wgt>
<wgt id='1775'> +9.3104737e+04 </wgt>
<wgt id='1776'> +9.3817561e+04 </wgt>
<wgt id='1777'> +9.3645217e+04 </wgt>
<wgt id='1778'> +9.3074762e+04 </wgt>
<wgt id='1779'> +9.4395887e+04 </wgt>
<wgt id='1780'> +9.2750058e+04 </wgt>
<wgt id='1781'> +9.4079022e+04 </wgt>
<wgt id='1782'> +9.3666813e+04 </wgt>
<wgt id='1783'> +9.3643202e+04 </wgt>
<wgt id='1784'> +8.9850752e+04 </wgt>
<wgt id='1785'> +8.8435119e+04 </wgt>
<wgt id='1786'> +9.3414335e+04 </wgt>
<wgt id='1787'> +8.9648329e+04 </wgt>
<wgt id='1788'> +9.3127377e+04 </wgt>
<wgt id='1789'> +8.8980670e+04 </wgt>
<wgt id='1790'> +8.9146004e+04 </wgt>
<wgt id='1791'> +8.8824847e+04 </wgt>
<wgt id='1792'> +9.1988899e+04 </wgt>
<wgt id='1793'> +8.7779252e+04 </wgt>
<wgt id='1794'> +8.9499115e+04 </wgt>
<wgt id='1795'> +9.1866350e+04 </wgt>
<wgt id='1796'> +9.0144435e+04 </wgt>
<wgt id='1797'> +9.4544280e+04 </wgt>
<wgt id='1798'> +8.9098346e+04 </wgt>
<wgt id='1799'> +8.9673650e+04 </wgt>
<wgt id='1800'> +8.9692248e+04 </wgt>
<wgt id='1801'> +8.7671829e+04 </wgt>
<wgt id='1802'> +8.7034809e+04 </wgt>
<wgt id='1803'> +8.9715601e+04 </wgt>
<wgt id='1804'> +8.9385809e+04 </wgt>
<wgt id='1805'> +8.9353804e+04 </wgt>
<wgt id='1806'> +8.9343369e+04 </wgt>
<wgt id='1807'> +8.9193982e+04 </wgt>
<wgt id='1808'> +8.9886208e+04 </wgt>
<wgt id='1809'> +9.0789506e+04 </wgt>
<wgt id='1810'> +8.9051335e+04 </wgt>
<wgt id='1811'> +8.9979252e+04 </wgt>
<wgt id='1812'> +8.9072494e+04 </wgt>
<wgt id='1813'> +8.8951720e+04 </wgt>
<wgt id='1814'> +8.8127146e+04 </wgt>
<wgt id='1815'> +9.0019106e+04 </wgt>
<wgt id='1816'> +8.9313616e+04 </wgt>
<wgt id='1817'> +8.8523836e+04 </wgt>
<wgt id='1818'> +8.9931653e+04 </wgt>
<wgt id='1819'> +8.9932507e+04 </wgt>
<wgt id='1820'> +8.9022410e+04 </wgt>
<wgt id='1821'> +9.0021084e+04 </wgt>
<wgt id='1822'> +8.8720703e+04 </wgt>
<wgt id='1823'> +8.9727691e+04 </wgt>
<wgt id='1824'> +8.7765365e+04 </wgt>
<wgt id='1825'> +8.5827571e+04 </wgt>
<wgt id='1826'> +9.3125873e+04 </wgt>
<wgt id='1827'> +9.2668621e+04 </wgt>
<wgt id='1828'> +9.2647097e+04 </wgt>
<wgt id='1829'> +9.2655987e+04 </wgt>
<wgt id='1830'> +9.2844829e+04 </wgt>
<wgt id='1831'> +9.2457840e+04 </wgt>
<wgt id='1832'> +9.2899955e+04 </wgt>
<wgt id='1833'> +9.2403773e+04 </wgt>
<wgt id='1834'> +9.3081624e+04 </wgt>
<wgt id='1835'> +9.2217027e+04 </wgt>
<wgt id='1836'> +9.2193677e+04 </wgt>
<wgt id='1837'> +9.3103185e+04 </wgt>
<wgt id='1838'> +9.3203365e+04 </wgt>
<wgt id='1839'> +9.2103879e+04 </wgt>
<wgt id='1840'> +9.2437519e+04 </wgt>
<wgt id='1841'> +9.2872511e+04 </wgt>
<wgt id='1842'> +9.2931936e+04 </wgt>
<wgt id='1843'> +9.2583762e+04 </wgt>
<wgt id='1844'> +9.2620957e+04 </wgt>
<wgt id='1845'> +9.2665099e+04 </wgt>
<wgt id='1846'> +9.2707136e+04 </wgt>
<wgt id='1847'> +9.2595564e+04 </wgt>
<wgt id='1848'> +9.3025850e+04 </wgt>
<wgt id='1849'> +9.2111748e+04 </wgt>
<wgt id='1850'> +9.1665902e+04 </wgt>
<wgt id='1851'> +9.3610785e+04 </wgt>
<wgt id='1852'> +9.0796634e+04 </wgt>
<wgt id='1853'> +9.4170818e+04 </wgt>
<wgt id='1854'> +9.2028880e+04 </wgt>
<wgt id='1855'> +9.3449884e+04 </wgt>
<wgt id='1856'> +1.0261595e+05 </wgt>
<wgt id='1857'> +1.0258084e+05 </wgt>
<wgt id='1858'> +1.0263379e+05 </wgt>
<wgt id='1859'> +1.0254613e+05 </wgt>
<wgt id='1860'> +1.0261882e+05 </wgt>
<wgt id='1861'> +1.0279522e+05 </wgt>
<wgt id='1862'> +1.0311091e+05 </wgt>
<wgt id='1863'> +1.0219946e+05 </wgt>
<wgt id='1864'> +1.0300734e+05 </wgt>
<wgt id='1865'> +1.0320607e+05 </wgt>
<wgt id='1866'> +1.0288094e+05 </wgt>
<wgt id='1867'> +1.0281585e+05 </wgt>
<wgt id='1868'> +1.0359192e+05 </wgt>
<wgt id='1869'> +1.0185453e+05 </wgt>
<wgt id='1870'> +1.0369105e+05 </wgt>
<wgt id='1871'> +1.0240554e+05 </wgt>
<wgt id='1872'> +1.0325044e+05 </wgt>
<wgt id='1873'> +1.0271725e+05 </wgt>
<wgt id='1874'> +1.0290557e+05 </wgt>
<wgt id='1875'> +1.0229440e+05 </wgt>
<wgt id='1876'> +1.0270035e+05 </wgt>
<wgt id='1877'> +1.0393908e+05 </wgt>
<wgt id='1878'> +1.0274066e+05 </wgt>
<wgt id='1879'> +1.0267206e+05 </wgt>
<wgt id='1880'> +1.0238663e+05 </wgt>
<wgt id='1881'> +1.0314374e+05 </wgt>
<wgt id='1882'> +1.0257791e+05 </wgt>
<wgt id='1883'> +1.0243869e+05 </wgt>
<wgt id='1884'> +1.0309959e+05 </wgt>
<wgt id='1885'> +1.0225210e+05 </wgt>
<wgt id='1886'> +3.5003053e+04 </wgt>
<wgt id='1887'> +5.8190758e+04 </wgt>
<wgt id='1888'> +7.3755862e+04 </wgt>
<wgt id='1889'> +8.9390695e+04 </wgt>
</rwgt>
</event>
<event npLO=" -1 " npNLO=" 0 ">
 5      1 +7.4519530e+04 3.27139340e+01 7.55820760e-03 1.06543610e-01
       -4 -1    0    0    0  501 +0.0000000000e+00 +0.0000000000e+00 +2.8617158644e+00 2.8617158644e+00 0.0000000000e+00 0.0000e+00 1.0000e+00
        3 -1    0    0  501    0 +0.0000000000e+00 +0.0000000000e+00 -5.9576611606e+02 5.9576611606e+02 0.0000000000e+00 0.0000e+00 -1.0000e+00
      -24  2    1    2    0    0 +0.0000000000e+00 +0.0000000000e+00 -5.9290440020e+02 5.9862783193e+02 8.2581192672e+01 0.0000e+00 0.0000e+00
       11  1    3    3    0    0 -1.1150207615e+00 -3.2694925997e+01 -4.7907881540e+02 4.8019445314e+02 0.0000000000e+00 0.0000e+00 -1.0000e+00
      -12  1    3    3    0    0 +1.1150207615e+00 +3.2694925997e+01 -1.1382558479e+02 1.1843337879e+02 0.0000000000e+00 0.0000e+00 1.0000e+00
#aMCatNLO 1  0  0  2  2 0.25508318E+03 0.00000000E+00 -9  5  0 0.00000000E+00 0.00000000E+00 0.00000000E+00 0.00000000E+00 0.00000000E+00
<rwgt>
<wgt id='1001'> +7.4519530e+04 </wgt>
<wgt id='1002'> +7.4514184e+04 </wgt>
<wgt id='1003'> +7.4526182e+04 </wgt>
<wgt id='1004'> +8.4787632e+04 </wgt>
<wgt id='1005'> +8.4847189e+04 </wgt>
<wgt id='1006'> +8.4713495e+04 </wgt>
<wgt id='1007'> +6.3027049e+04 </wgt>
<wgt id='1008'> +6.2974511e+04 </wgt>
<wgt id='1009'> +6.3092448e+04 </wgt>
<wgt id='1010'> +7.4519530e+04 </wgt>
<wgt id='1011'> +7.4193922e+04 </wgt>
<wgt id='1012'> +7.5532043e+04 </wgt>
<wgt id='1013'> +7.3422525e+04 </wgt>
<wgt id='1014'> +7.3746224e+04 </wgt>
<wgt id='1015'> +7.4341890e+04 </wgt>
<wgt id='1016'> +7.4680551e+04 </wgt>
<wgt id='1017'> +7.5479779e+04 </wgt>
<wgt id='1018'> +7.5231756e+04 </wgt>
<wgt id='1019'> +7.3666555e+04 </wgt>
<wgt id='1020'> +7.4321602e+04 </wgt>
<wgt id='1021'> +7.3994229e+04 </wgt>
<wgt id='1022'> +7.4690804e+04 </wgt>
<wgt id='1023'> +7.4266305e+04 </wgt>
<wgt id='1024'> +7.3979457e+04 </wgt>
<wgt id='1025'> +7.2987614e+04 </wgt>
<wgt id='1026'> +7.4491600e+04 </wgt>
<wgt id='1027'> +7.3744449e+04 </wgt>
<wgt id='1028'> +7.5376373e+04 </wgt>
<wgt id='1029'> +7.3948784e+04 </wgt>
<wgt id='1030'> +7.5902841e+04 </wgt>
<wgt id='1031'> +7.4757665e+04 </wgt>
<wgt id='1032'> +7.4647195e+04 </wgt>
<wgt id='1033'> +7.4745577e+04 </wgt>
<wgt id='1034'> +7.5207260e+04 </wgt>
<wgt id='1035'> +7.4586400e+04 </wgt>
<wgt id='1036'> +7.5251943e+04 </wgt>
<wgt id='1037'> +7.3084182e+04 </wgt>
<wgt id='1038'> +7.4724099e+04 </wgt>
<wgt id='1039'> +7.2553507e+04 </wgt>
<wgt id='1040'> +7.4567984e+04 </wgt>
<wgt id='1041'> +7.3084392e+04 </wgt>
<wgt id='1042'> +7.4915080e+04 </wgt>
<wgt id='1043'> +7.3502438e+04 </wgt>
<wgt id='1044'> +7.5056534e+04 </wgt>
<wgt id='1045'> +7.5926057e+04 </wgt>
<wgt id='1046'> +7.5107269e+04 </wgt>
<wgt id='1047'> +7.3901000e+04 </wgt>
<wgt id='1048'> +7.4370190e+04 </wgt>
<wgt id='1049'> +7.4186078e+04 </wgt>
<wgt id='1050'> +7.4751765e+04 </wgt>
<wgt id='1051'> +7.3839963e+04 </wgt>
<wgt id='1052'> +7.3349246e+04 </wgt>
<wgt id='1053'> +7.4837675e+04 </wgt>
<wgt id='1054'> +7.5657541e+04 </wgt>
<wgt id='1055'> +7.4036296e+04 </wgt>
<wgt id='1056'> +7.4527641e+04 </wgt>
<wgt id='1057'> +7.5016749e+04 </wgt>
<wgt id='1058'> +7.5151465e+04 </wgt>
<wgt id='1059'> +7.5063216e+04 </wgt>
<wgt id='1060'> +7.4299054e+04 </wgt>
<wgt id='1061'> +7.5369248e+04 </wgt>
<wgt id='1062'> +7.4586353e+04 </wgt>
<wgt id='1063'> +7.3563827e+04 </wgt>
<wgt id='1064'> +7.3720946e+04 </wgt>
<wgt id='1065'> +7.3546890e+04 </wgt>
<wgt id='1066'> +7.4692091e+04 </wgt>
<wgt id='1067'> +7.3761486e+04 </wgt>
<wgt id='1068'> +7.3775691e+04 </wgt>
<wgt id='1069'> +7.5105283e+04 </wgt>
<wgt id='1070'> +7.4161664e+04 </wgt>
<wgt id='1071'> +7.3436732e+04 </wgt>
<wgt id='1072'> +7.4652715e+04 </wgt>
<wgt id='1073'> +7.4898314e+04 </wgt>
<wgt id='1074'> +7.5190305e+04 </wgt>
<wgt id='1075'> +7.3390077e+04 </wgt>
<wgt id='1076'> +7.4143725e+04 </wgt>
<wgt id='1077'> +7.4721969e+04 </wgt>
<wgt id='1078'> +7.4769073e+04 </wgt>
<wgt id='1079'> +7.5046312e+04 </wgt>
<wgt id='1080'> +7.4153986e+04 </wgt>
<wgt id='1081'> +7.4260010e+04 </wgt>
<wgt id='1082'> +7.3844422e+04 </wgt>
<wgt id='1083'> +7.5268949e+04 </wgt>
<wgt id='1084'> +7.4178152e+04 </wgt>
<wgt id='1085'> +7.5148003e+04 </wgt>
<wgt id='1086'> +7.5461896e+04 </wgt>
<wgt id='1087'> +7.4600154e+04 </wgt>
<wgt id='1088'> +7.4574263e+04 </wgt>
<wgt id='1089'> +7.4757962e+04 </wgt>
<wgt id='1090'> +7.4201131e+04 </wgt>
<wgt id='1091'> +7.4042686e+04 </wgt>
<wgt id='1092'> +7.4759326e+04 </wgt>
<wgt id='1093'> +7.4437743e+04 </wgt>
<wgt id='1094'> +7.4973148e+04 </wgt>
<wgt id='1095'> +7.4711756e+04 </wgt>
<wgt id='1096'> +7.4576398e+04 </wgt>
<wgt id='1097'> +7.4853637e+04 </wgt>
<wgt id='1098'> +7.4386070e+04 </wgt>
<wgt id='1099'> +7.4421251e+04 </wgt>
<wgt id='1100'> +7.4596978e+04 </wgt>
<wgt id='1101'> +7.4548669e+04 </wgt>
<wgt id='1102'> +7.4643806e+04 </wgt>
<wgt id='1103'> +7.4631891e+04 </wgt>
<wgt id='1104'> +7.4793886e+04 </wgt>
<wgt id='1105'> +7.4605638e+04 </wgt>
<wgt id='1106'> +7.4108065e+04 </wgt>
<wgt id='1107'> +7.4490169e+04 </wgt>
<wgt id='1108'> +7.4501355e+04 </wgt>
<wgt id='1109'> +7.4732405e+04 </wgt>
<wgt id='1110'> +7.4519529e+04 </wgt>
<wgt id='1111'> +7.4708113e+04 </wgt>
<wgt id='1112'> +7.6278960e+04 </wgt>
<wgt id='1113'> +7.4519529e+04 </wgt>
<wgt id='1114'> +5.5372971e+04 </wgt>
<wgt id='1115'> +7.2735390e+04 </wgt>
<wgt id='1116'> +6.2043028e+04 </wgt>
<wgt id='1117'> +7.5548256e+04 </wgt>
<wgt id='1118'> +6.7424299e+04 </wgt>
<wgt id='1119'> +7.8818962e+04 </wgt>
<wgt id='1120'> +7.3868443e+04 </wgt>
<wgt id='1121'> +7.3750045e+04 </wgt>
<wgt id='1122'> +7.3316657e+04 </wgt>
<wgt id='1123'> +8.6123464e+04 </wgt>
<wgt id='1124'> +7.6739388e+04 </wgt>
<wgt id='1125'> +7.8613422e+04 </wgt>
<wgt id='1126'> +7.7609934e+04 </wgt>
<wgt id='1127'> +7.3290530e+04 </wgt>
<wgt id='1128'> +6.9975346e+04 </wgt>
<wgt id='1129'> +7.7160809e+04 </wgt>
<wgt id='1130'> +6.8109768e+04 </wgt>
<wgt id='1131'> +7.3237592e+04 </wgt>
<wgt id='1132'> +7.6872546e+04 </wgt>
<wgt id='1133'> +8.4703396e+04 </wgt>
<wgt id='1134'> +7.9396372e+04 </wgt>
<wgt id='1135'> +7.4691272e+04 </wgt>
<wgt id='1136'> +7.7943819e+04 </wgt>
<wgt id='1137'> +7.6320762e+04 </wgt>
<wgt id='1138'> +7.3749521e+04 </wgt>
<wgt id='1139'> +6.7498834e+04 </wgt>
<wgt id='1140'> +8.1886130e+04 </wgt>
<wgt id='1141'> +7.2140042e+04 </wgt>
<wgt id='1142'> +7.5632753e+04 </wgt>
<wgt id='1143'> +6.3867776e+04 </wgt>
<wgt id='1144'> +6.5851155e+04 </wgt>
<wgt id='1145'> +7.2616132e+04 </wgt>
<wgt id='1146'> +7.4079727e+04 </wgt>
<wgt id='1147'> +7.2477116e+04 </wgt>
<wgt id='1148'> +7.0239729e+04 </wgt>
<wgt id='1149'> +7.4196584e+04 </wgt>
<wgt id='1150'> +7.7712072e+04 </wgt>
<wgt id='1151'> +7.9582963e+04 </wgt>
<wgt id='1152'> +7.8100790e+04 </wgt>
<wgt id='1153'> +7.7930173e+04 </wgt>
<wgt id='1154'> +7.1258286e+04 </wgt>
<wgt id='1155'> +7.4255001e+04 </wgt>
<wgt id='1156'> +6.9574313e+04 </wgt>
<wgt id='1157'> +7.3488409e+04 </wgt>
<wgt id='1158'> +7.8389265e+04 </wgt>
<wgt id='1159'> +7.6775993e+04 </wgt>
<wgt id='1160'> +7.5399769e+04 </wgt>
<wgt id='1161'> +6.0965234e+04 </wgt>
<wgt id='1162'> +6.8603773e+04 </wgt>
<wgt id='1163'> +7.5580460e+04 </wgt>
<wgt id='1164'> +7.8145707e+04 </wgt>
<wgt id='1165'> +8.0140428e+04 </wgt>
<wgt id='1166'> +7.3233627e+04 </wgt>
<wgt id='1167'> +8.3659841e+04 </wgt>
<wgt id='1168'> +7.3347366e+04 </wgt>
<wgt id='1169'> +6.9471475e+04 </wgt>
<wgt id='1170'> +7.0992156e+04 </wgt>
<wgt id='1171'> +7.3641939e+04 </wgt>
<wgt id='1172'> +7.6370665e+04 </wgt>
<wgt id='1173'> +7.1435705e+04 </wgt>
<wgt id='1174'> +7.5431636e+04 </wgt>
<wgt id='1175'> +7.3903525e+04 </wgt>
<wgt id='1176'> +7.9889114e+04 </wgt>
<wgt id='1177'> +6.8907954e+04 </wgt>
<wgt id='1178'> +7.4640108e+04 </wgt>
<wgt id='1179'> +7.1838481e+04 </wgt>
<wgt id='1180'> +7.8542242e+04 </wgt>
<wgt id='1181'> +7.6165724e+04 </wgt>
<wgt id='1182'> +7.6777731e+04 </wgt>
<wgt id='1183'> +8.2374451e+04 </wgt>
<wgt id='1184'> +7.3221315e+04 </wgt>
<wgt id='1185'> +7.4509693e+04 </wgt>
<wgt id='1186'> +8.8181104e+04 </wgt>
<wgt id='1187'> +8.2086349e+04 </wgt>
<wgt id='1188'> +7.2503723e+04 </wgt>
<wgt id='1189'> +7.2935159e+04 </wgt>
<wgt id='1190'> +7.5725295e+04 </wgt>
<wgt id='1191'> +7.5763417e+04 </wgt>
<wgt id='1192'> +6.6218602e+04 </wgt>
<wgt id='1193'> +7.5817953e+04 </wgt>
<wgt id='1194'> +7.8032527e+04 </wgt>
<wgt id='1195'> +7.7160809e+04 </wgt>
<wgt id='1196'> +9.5304127e+04 </wgt>
<wgt id='1197'> +6.9367244e+04 </wgt>
<wgt id='1198'> +6.7981491e+04 </wgt>
<wgt id='1199'> +5.2456986e+04 </wgt>
<wgt id='1200'> +7.5508564e+04 </wgt>
<wgt id='1201'> +7.7147191e+04 </wgt>
<wgt id='1202'> +1.0063661e+05 </wgt>
<wgt id='1203'> +7.4392076e+04 </wgt>
<wgt id='1204'> +6.8085587e+04 </wgt>
<wgt id='1205'> +7.6113094e+04 </wgt>
<wgt id='1206'> +7.9697662e+04 </wgt>
<wgt id='1207'> +7.1073353e+04 </wgt>
<wgt id='1208'> +7.2638045e+04 </wgt>
<wgt id='1209'> +6.8954001e+04 </wgt>
<wgt id='1210'> +7.4170618e+04 </wgt>
<wgt id='1211'> +7.7163364e+04 </wgt>
<wgt id='1212'> +7.4984898e+04 </wgt>
<wgt id='1213'> +6.8720427e+04 </wgt>
<wgt id='1214'> +7.5038687e+04 </wgt>
<wgt id='1215'> +6.8292672e+04 </wgt>
<wgt id='1216'> +6.9273738e+04 </wgt>
<wgt id='1217'> +7.1444504e+04 </wgt>
<wgt id='1218'> +7.1427615e+04 </wgt>
<wgt id='1219'> +7.3977201e+04 </wgt>
<wgt id='1220'> +7.5172201e+04 </wgt>
<wgt id='1221'> +7.8188536e+04 </wgt>
<wgt id='1222'> +7.9507263e+04 </wgt>
<wgt id='1223'> +7.4287963e+04 </wgt>
<wgt id='1224'> +7.3771526e+04 </wgt>
<wgt id='1225'> +7.4901642e+04 </wgt>
<wgt id='1226'> +7.3526596e+04 </wgt>
<wgt id='1227'> +7.3426098e+04 </wgt>
<wgt id='1228'> +7.3606595e+04 </wgt>
<wgt id='1229'> +7.4206974e+04 </wgt>
<wgt id='1230'> +7.4091869e+04 </wgt>
<wgt id='1231'> +7.5129405e+04 </wgt>
<wgt id='1232'> +7.4312706e+04 </wgt>
<wgt id='1233'> +7.5370030e+04 </wgt>
<wgt id='1234'> +7.4541145e+04 </wgt>
<wgt id='1235'> +7.3909684e+04 </wgt>
<wgt id='1236'> +7.4316804e+04 </wgt>
<wgt id='1237'> +7.3891881e+04 </wgt>
<wgt id='1238'> +7.5413863e+04 </wgt>
<wgt id='1239'> +7.4402547e+04 </wgt>
<wgt id='1240'> +7.4299690e+04 </wgt>
<wgt id='1241'> +7.3754754e+04 </wgt>
<wgt id='1242'> +7.4277913e+04 </wgt>
<wgt id='1243'> +7.4794650e+04 </wgt>
<wgt id='1244'> +7.3473073e+04 </wgt>
<wgt id='1245'> +7.4110364e+04 </wgt>
<wgt id='1246'> +7.3719242e+04 </wgt>
<wgt id='1247'> +7.4079248e+04 </wgt>
<wgt id='1248'> +7.4987182e+04 </wgt>
<wgt id='1249'> +7.4752847e+04 </wgt>
<wgt id='1250'> +7.4066739e+04 </wgt>
<wgt id='1251'> +7.4384140e+04 </wgt>
<wgt id='1252'> +7.3412100e+04 </wgt>
<wgt id='1253'> +7.5340470e+04 </wgt>
<wgt id='1254'> +7.4895598e+04 </wgt>
<wgt id='1255'> +7.3870374e+04 </wgt>
<wgt id='1256'> +7.4068595e+04 </wgt>
<wgt id='1257'> +7.4304701e+04 </wgt>
<wgt id='1258'> +7.3893146e+04 </wgt>
<wgt id='1259'> +7.3977390e+04 </wgt>
<wgt id='1260'> +7.4502673e+04 </wgt>
<wgt id='1261'> +7.4056568e+04 </wgt>
<wgt id='1262'> +7.3939165e+04 </wgt>
<wgt id='1263'> +7.4432032e+04 </wgt>
<wgt id='1264'> +7.3501590e+04 </wgt>
<wgt id='1265'> +7.4863975e+04 </wgt>
<wgt id='1266'> +7.4462107e+04 </wgt>
<wgt id='1267'> +7.3911753e+04 </wgt>
<wgt id='1268'> +7.4603471e+04 </wgt>
<wgt id='1269'> +7.3416774e+04 </wgt>
<wgt id='1270'> +7.3440964e+04 </wgt>
<wgt id='1271'> +7.3754085e+04 </wgt>
<wgt id='1272'> +7.5240367e+04 </wgt>
<wgt id='1273'> +7.4282299e+04 </wgt>
<wgt id='1274'> +7.3547243e+04 </wgt>
<wgt id='1275'> +7.4368475e+04 </wgt>
<wgt id='1276'> +7.5029253e+04 </wgt>
<wgt id='1277'> +7.4405058e+04 </wgt>
<wgt id='1278'> +7.3932896e+04 </wgt>
<wgt id='1279'> +7.6638197e+04 </wgt>
<wgt id='1280'> +7.3814019e+04 </wgt>
<wgt id='1281'> +7.5407552e+04 </wgt>
<wgt id='1282'> +7.4525452e+04 </wgt>
<wgt id='1283'> +7.4122468e+04 </wgt>
<wgt id='1284'> +7.4325237e+04 </wgt>
<wgt id='1285'> +7.4450817e+04 </wgt>
<wgt id='1286'> +7.4291648e+04 </wgt>
<wgt id='1287'> +7.3701500e+04 </wgt>
<wgt id='1288'> +7.4152845e+04 </wgt>
<wgt id='1289'> +7.3582711e+04 </wgt>
<wgt id='1290'> +7.4138490e+04 </wgt>
<wgt id='1291'> +7.4001395e+04 </wgt>
<wgt id='1292'> +7.3964993e+04 </wgt>
<wgt id='1293'> +7.4028281e+04 </wgt>
<wgt id='1294'> +7.4000686e+04 </wgt>
<wgt id='1295'> +7.4178532e+04 </wgt>
<wgt id='1296'> +7.4480894e+04 </wgt>
<wgt id='1297'> +7.4904611e+04 </wgt>
<wgt id='1298'> +7.4569405e+04 </wgt>
<wgt id='1299'> +7.3809620e+04 </wgt>
<wgt id='1300'> +7.4711348e+04 </wgt>
<wgt id='1301'> +7.5208212e+04 </wgt>
<wgt id='1302'> +7.4521297e+04 </wgt>
<wgt id='1303'> +7.4304323e+04 </wgt>
<wgt id='1304'> +7.5695741e+04 </wgt>
<wgt id='1305'> +7.4094604e+04 </wgt>
<wgt id='1306'> +7.4717405e+04 </wgt>
<wgt id='1307'> +7.4410860e+04 </wgt>
<wgt id='1308'> +7.4456270e+04 </wgt>
<wgt id='1309'> +7.4150461e+04 </wgt>
<wgt id='1310'> +7.4362930e+04 </wgt>
<wgt id='1311'> +7.3847944e+04 </wgt>
<wgt id='1312'> +7.4653883e+04 </wgt>
<wgt id='1313'> +7.4583130e+04 </wgt>
<wgt id='1314'> +7.4337177e+04 </wgt>
<wgt id='1315'> +7.4445194e+04 </wgt>
<wgt id='1316'> +7.4036972e+04 </wgt>
<wgt id='1317'> +7.4580043e+04 </wgt>
<wgt id='1318'> +7.4237010e+04 </wgt>
<wgt id='1319'> +7.3744767e+04 </wgt>
<wgt id='1320'> +7.4028982e+04 </wgt>
<wgt id='1321'> +7.4597425e+04 </wgt>
<wgt id='1322'> +7.4514990e+04 </wgt>
<wgt id='1323'> +7.4357812e+04 </wgt>
<wgt id='1324'> +7.3256782e+04 </wgt>
<wgt id='1325'> +7.6122271e+04 </wgt>
<wgt id='1326'> +7.0549425e+04 </wgt>
<wgt id='1327'> +7.3727621e+04 </wgt>
<wgt id='1328'> +8.7691825e+04 </wgt>
<wgt id='1329'> +8.8234489e+04 </wgt>
<wgt id='1330'> +8.7117181e+04 </wgt>
<wgt id='1331'> +8.8959655e+04 </wgt>
<wgt id='1332'> +8.3914720e+04 </wgt>
<wgt id='1333'> +8.1801570e+04 </wgt>
<wgt id='1334'> +8.7665153e+04 </wgt>
<wgt id='1335'> +9.3963168e+04 </wgt>
<wgt id='1336'> +8.4589336e+04 </wgt>
<wgt id='1337'> +8.6548351e+04 </wgt>
<wgt id='1338'> +9.4280523e+04 </wgt>
<wgt id='1339'> +8.7028623e+04 </wgt>
<wgt id='1340'> +8.6972508e+04 </wgt>
<wgt id='1341'> +9.3059141e+04 </wgt>
<wgt id='1342'> +7.3295074e+04 </wgt>
<wgt id='1343'> +9.2325669e+04 </wgt>
<wgt id='1344'> +8.7754436e+04 </wgt>
<wgt id='1345'> +8.4391251e+04 </wgt>
<wgt id='1346'> +8.0179175e+04 </wgt>
<wgt id='1347'> +8.0907957e+04 </wgt>
<wgt id='1348'> +9.6173109e+04 </wgt>
<wgt id='1349'> +7.9518206e+04 </wgt>
<wgt id='1350'> +7.6075574e+04 </wgt>
<wgt id='1351'> +8.7456844e+04 </wgt>
<wgt id='1352'> +8.9327741e+04 </wgt>
<wgt id='1353'> +8.1017365e+04 </wgt>
<wgt id='1354'> +1.0071383e+05 </wgt>
<wgt id='1355'> +8.2976978e+04 </wgt>
<wgt id='1356'> +8.2758888e+04 </wgt>
<wgt id='1357'> +8.9581036e+04 </wgt>
<wgt id='1358'> +9.2729396e+04 </wgt>
<wgt id='1359'> +8.5171923e+04 </wgt>
<wgt id='1360'> +7.4004504e+04 </wgt>
<wgt id='1361'> +8.1411670e+04 </wgt>
<wgt id='1362'> +8.6069001e+04 </wgt>
<wgt id='1363'> +9.3461075e+04 </wgt>
<wgt id='1364'> +8.9967324e+04 </wgt>
<wgt id='1365'> +8.3916167e+04 </wgt>
<wgt id='1366'> +8.4170139e+04 </wgt>
<wgt id='1367'> +8.3334558e+04 </wgt>
<wgt id='1368'> +9.9788686e+04 </wgt>
<wgt id='1369'> +7.6048089e+04 </wgt>
<wgt id='1370'> +9.9410525e+04 </wgt>
<wgt id='1371'> +8.7653182e+04 </wgt>
<wgt id='1372'> +8.3016942e+04 </wgt>
<wgt id='1373'> +8.8589710e+04 </wgt>
<wgt id='1374'> +9.4332588e+04 </wgt>
<wgt id='1375'> +9.1206077e+04 </wgt>
<wgt id='1376'> +9.7615111e+04 </wgt>
<wgt id='1377'> +8.4382344e+04 </wgt>
<wgt id='1378'> +8.8538977e+04 </wgt>
<wgt id='1379'> +8.5600067e+04 </wgt>
<wgt id='1380'> +9.0910307e+04 </wgt>
<wgt id='1381'> +8.4454523e+04 </wgt>
<wgt id='1382'> +9.4028918e+04 </wgt>
<wgt id='1383'> +9.5440079e+04 </wgt>
<wgt id='1384'> +8.9240451e+04 </wgt>
<wgt id='1385'> +1.1191056e+05 </wgt>
<wgt id='1386'> +8.3545938e+04 </wgt>
<wgt id='1387'> +7.8638664e+04 </wgt>
<wgt id='1388'> +8.2557684e+04 </wgt>
<wgt id='1389'> +9.0643646e+04 </wgt>
<wgt id='1390'> +9.7977734e+04 </wgt>
<wgt id='1391'> +9.4289354e+04 </wgt>
<wgt id='1392'> +9.4457088e+04 </wgt>
<wgt id='1393'> +8.7494071e+04 </wgt>
<wgt id='1394'> +8.3916167e+04 </wgt>
<wgt id='1395'> +8.8268705e+04 </wgt>
<wgt id='1396'> +8.3547322e+04 </wgt>
<wgt id='1397'> +8.8521726e+04 </wgt>
<wgt id='1398'> +8.0474829e+04 </wgt>
<wgt id='1399'> +9.1057617e+04 </wgt>
<wgt id='1400'> +9.3264594e+04 </wgt>
<wgt id='1401'> +9.5320735e+04 </wgt>
<wgt id='1402'> +9.1343588e+04 </wgt>
<wgt id='1403'> +7.6713852e+04 </wgt>
<wgt id='1404'> +8.6644839e+04 </wgt>
<wgt id='1405'> +9.4390391e+04 </wgt>
<wgt id='1406'> +9.0648582e+04 </wgt>
<wgt id='1407'> +8.2368124e+04 </wgt>
<wgt id='1408'> +7.9453107e+04 </wgt>
<wgt id='1409'> +8.6189095e+04 </wgt>
<wgt id='1410'> +8.3116370e+04 </wgt>
<wgt id='1411'> +8.3721175e+04 </wgt>
<wgt id='1412'> +8.9903378e+04 </wgt>
<wgt id='1413'> +8.7645933e+04 </wgt>
<wgt id='1414'> +9.9356006e+04 </wgt>
<wgt id='1415'> +9.0473507e+04 </wgt>
<wgt id='1416'> +9.4406029e+04 </wgt>
<wgt id='1417'> +8.4675696e+04 </wgt>
<wgt id='1418'> +8.3817046e+04 </wgt>
<wgt id='1419'> +9.7037371e+04 </wgt>
<wgt id='1420'> +9.2115454e+04 </wgt>
<wgt id='1421'> +8.9675116e+04 </wgt>
<wgt id='1422'> +8.4062826e+04 </wgt>
<wgt id='1423'> +8.3147640e+04 </wgt>
<wgt id='1424'> +7.8923608e+04 </wgt>
<wgt id='1425'> +8.2360907e+04 </wgt>
<wgt id='1426'> +9.3420300e+04 </wgt>
<wgt id='1427'> +8.9980566e+04 </wgt>
<wgt id='1428'> +7.4529026e+04 </wgt>
<wgt id='1429'> +8.6590161e+04 </wgt>
<wgt id='1430'> +8.9850673e+04 </wgt>
<wgt id='1431'> +8.7681536e+04 </wgt>
<wgt id='1432'> +8.8145064e+04 </wgt>
<wgt id='1433'> +8.7629991e+04 </wgt>
<wgt id='1434'> +8.7722374e+04 </wgt>
<wgt id='1435'> +8.8326577e+04 </wgt>
<wgt id='1436'> +8.9928135e+04 </wgt>
<wgt id='1437'> +8.6847465e+04 </wgt>
<wgt id='1438'> +8.7470928e+04 </wgt>
<wgt id='1439'> +8.9427538e+04 </wgt>
<wgt id='1440'> +8.8212529e+04 </wgt>
<wgt id='1441'> +8.8342115e+04 </wgt>
<wgt id='1442'> +8.9781294e+04 </wgt>
<wgt id='1443'> +8.7601913e+04 </wgt>
<wgt id='1444'> +8.9013110e+04 </wgt>
<wgt id='1445'> +9.1424453e+04 </wgt>
<wgt id='1446'> +8.7390458e+04 </wgt>
<wgt id='1447'> +8.8110088e+04 </wgt>
<wgt id='1448'> +8.7212483e+04 </wgt>
<wgt id='1449'> +8.8220286e+04 </wgt>
<wgt id='1450'> +8.7298442e+04 </wgt>
<wgt id='1451'> +8.7859215e+04 </wgt>
<wgt id='1452'> +8.6109734e+04 </wgt>
<wgt id='1453'> +8.7051805e+04 </wgt>
<wgt id='1454'> +8.7969823e+04 </wgt>
<wgt id='1455'> +8.8981221e+04 </wgt>
<wgt id='1456'> +8.6554515e+04 </wgt>
<wgt id='1457'> +8.8076129e+04 </wgt>
<wgt id='1458'> +8.8043935e+04 </wgt>
<wgt id='1459'> +8.8062127e+04 </wgt>
<wgt id='1460'> +8.8088832e+04 </wgt>
<wgt id='1461'> +8.7883401e+04 </wgt>
<wgt id='1462'> +8.8337800e+04 </wgt>
<wgt id='1463'> +8.7238686e+04 </wgt>
<wgt id='1464'> +8.7306147e+04 </wgt>
<wgt id='1465'> +8.7128257e+04 </wgt>
<wgt id='1466'> +8.7596539e+04 </wgt>
<wgt id='1467'> +8.7373992e+04 </wgt>
<wgt id='1468'> +8.7663775e+04 </wgt>
<wgt id='1469'> +8.7935089e+04 </wgt>
<wgt id='1470'> +8.7636777e+04 </wgt>
<wgt id='1471'> +8.7617800e+04 </wgt>
<wgt id='1472'> +8.7923471e+04 </wgt>
<wgt id='1473'> +8.7802650e+04 </wgt>
<wgt id='1474'> +8.7294480e+04 </wgt>
<wgt id='1475'> +8.8221495e+04 </wgt>
<wgt id='1476'> +8.7975474e+04 </wgt>
<wgt id='1477'> +8.7639686e+04 </wgt>
<wgt id='1478'> +8.7887278e+04 </wgt>
<wgt id='1479'> +8.7935513e+04 </wgt>
<wgt id='1480'> +8.7889649e+04 </wgt>
<wgt id='1481'> +8.7637365e+04 </wgt>
<wgt id='1482'> +8.6590161e+04 </wgt>
<wgt id='1483'> +8.9850673e+04 </wgt>
<wgt id='1484'> +9.1393243e+04 </wgt>
<wgt id='1485'> +9.5726905e+04 </wgt>
<wgt id='1486'> +9.6204526e+04 </wgt>
<wgt id='1487'> +9.1795103e+04 </wgt>
<wgt id='1488'> +8.1772855e+04 </wgt>
<wgt id='1489'> +9.5146339e+04 </wgt>
<wgt id='1490'> +9.6822468e+04 </wgt>
<wgt id='1491'> +9.9306874e+04 </wgt>
<wgt id='1492'> +9.5097233e+04 </wgt>
<wgt id='1493'> +8.3068989e+04 </wgt>
<wgt id='1494'> +8.4476448e+04 </wgt>
<wgt id='1495'> +9.5750785e+04 </wgt>
<wgt id='1496'> +9.9638100e+04 </wgt>
<wgt id='1497'> +9.8495004e+04 </wgt>
<wgt id='1498'> +8.4106732e+04 </wgt>
<wgt id='1499'> +8.4199683e+04 </wgt>
<wgt id='1500'> +9.1978877e+04 </wgt>
<wgt id='1501'> +8.9467333e+04 </wgt>
<wgt id='1502'> +9.3993125e+04 </wgt>
<wgt id='1503'> +9.5201808e+04 </wgt>
<wgt id='1504'> +8.9904091e+04 </wgt>
<wgt id='1505'> +8.9440706e+04 </wgt>
<wgt id='1506'> +9.3494514e+04 </wgt>
<wgt id='1507'> +9.0755932e+04 </wgt>
<wgt id='1508'> +9.2773745e+04 </wgt>
<wgt id='1509'> +8.4459114e+04 </wgt>
<wgt id='1510'> +7.6964844e+04 </wgt>
<wgt id='1511'> +8.4232662e+04 </wgt>
<wgt id='1512'> +7.7224673e+04 </wgt>
<wgt id='1513'> +9.2730298e+04 </wgt>
<wgt id='1514'> +9.3518454e+04 </wgt>
<wgt id='1515'> +9.1717241e+04 </wgt>
<wgt id='1516'> +8.4080557e+04 </wgt>
<wgt id='1517'> +9.1677661e+04 </wgt>
<wgt id='1518'> +9.0012084e+04 </wgt>
<wgt id='1519'> +8.9590746e+04 </wgt>
<wgt id='1520'> +8.2784468e+04 </wgt>
<wgt id='1521'> +8.6605339e+04 </wgt>
<wgt id='1522'> +8.8277933e+04 </wgt>
<wgt id='1523'> +9.2586118e+04 </wgt>
<wgt id='1524'> +9.2385404e+04 </wgt>
<wgt id='1525'> +9.6476823e+04 </wgt>
<wgt id='1526'> +9.5661077e+04 </wgt>
<wgt id='1527'> +9.0410958e+04 </wgt>
<wgt id='1528'> +9.2183209e+04 </wgt>
<wgt id='1529'> +9.7409300e+04 </wgt>
<wgt id='1530'> +9.6677301e+04 </wgt>
<wgt id='1531'> +9.0632448e+04 </wgt>
<wgt id='1532'> +7.5814040e+04 </wgt>
<wgt id='1533'> +8.2971483e+04 </wgt>
<wgt id='1534'> +9.3845351e+04 </wgt>
<wgt id='1535'> +8.0099586e+04 </wgt>
<wgt id='1536'> +1.0472229e+05 </wgt>
<wgt id='1537'> +9.1402664e+04 </wgt>
<wgt id='1538'> +1.0007568e+05 </wgt>
<wgt id='1539'> +9.0691858e+04 </wgt>
<wgt id='1540'> +9.3281565e+04 </wgt>
<wgt id='1541'> +9.2842102e+04 </wgt>
<wgt id='1542'> +9.6514551e+04 </wgt>
<wgt id='1543'> +8.7807708e+04 </wgt>
<wgt id='1544'> +9.5206728e+04 </wgt>
<wgt id='1545'> +9.0366968e+04 </wgt>
<wgt id='1546'> +1.0036419e+05 </wgt>
<wgt id='1547'> +9.7656136e+04 </wgt>
<wgt id='1548'> +8.7808860e+04 </wgt>
<wgt id='1549'> +8.9234517e+04 </wgt>
<wgt id='1550'> +8.6963355e+04 </wgt>
<wgt id='1551'> +8.7907454e+04 </wgt>
<wgt id='1552'> +9.3129112e+04 </wgt>
<wgt id='1553'> +8.6419923e+04 </wgt>
<wgt id='1554'> +8.9261502e+04 </wgt>
<wgt id='1555'> +1.0089878e+05 </wgt>
<wgt id='1556'> +1.0677694e+05 </wgt>
<wgt id='1557'> +8.4382529e+04 </wgt>
<wgt id='1558'> +9.4809386e+04 </wgt>
<wgt id='1559'> +8.4093022e+04 </wgt>
<wgt id='1560'> +8.0546098e+04 </wgt>
<wgt id='1561'> +9.0154402e+04 </wgt>
<wgt id='1562'> +8.8480847e+04 </wgt>
<wgt id='1563'> +8.7205569e+04 </wgt>
<wgt id='1564'> +9.2730690e+04 </wgt>
<wgt id='1565'> +8.1784248e+04 </wgt>
<wgt id='1566'> +9.3023140e+04 </wgt>
<wgt id='1567'> +9.3527518e+04 </wgt>
<wgt id='1568'> +9.5111808e+04 </wgt>
<wgt id='1569'> +9.8981950e+04 </wgt>
<wgt id='1570'> +9.5320306e+04 </wgt>
<wgt id='1571'> +1.0697797e+05 </wgt>
<wgt id='1572'> +9.4039966e+04 </wgt>
<wgt id='1573'> +1.0022883e+05 </wgt>
<wgt id='1574'> +1.0032742e+05 </wgt>
<wgt id='1575'> +8.6776407e+04 </wgt>
<wgt id='1576'> +9.6183468e+04 </wgt>
<wgt id='1577'> +9.4479330e+04 </wgt>
<wgt id='1578'> +8.6260505e+04 </wgt>
<wgt id='1579'> +8.9980320e+04 </wgt>
<wgt id='1580'> +9.2685518e+04 </wgt>
<wgt id='1581'> +8.7063218e+04 </wgt>
<wgt id='1582'> +9.2018795e+04 </wgt>
<wgt id='1583'> +8.9075366e+04 </wgt>
<wgt id='1584'> +9.3535757e+04 </wgt>
<wgt id='1585'> +8.6450340e+04 </wgt>
<wgt id='1586'> +1.2091325e+05 </wgt>
<wgt id='1587'> +8.4125379e+04 </wgt>
<wgt id='1588'> +8.6590161e+04 </wgt>
<wgt id='1589'> +8.7745784e+04 </wgt>
<wgt id='1590'> +8.9313210e+04 </wgt>
<wgt id='1591'> +8.9850673e+04 </wgt>
<wgt id='1592'> +9.0899143e+04 </wgt>
<wgt id='1593'> +6.7597492e+04 </wgt>
<wgt id='1594'> +6.6315248e+04 </wgt>
<wgt id='1595'> +6.7606759e+04 </wgt>
<wgt id='1596'> +7.3442293e+04 </wgt>
<wgt id='1597'> +6.3956043e+04 </wgt>
<wgt id='1598'> +7.0743504e+04 </wgt>
<wgt id='1599'> +6.4934319e+04 </wgt>
<wgt id='1600'> +6.6843202e+04 </wgt>
<wgt id='1601'> +6.7664838e+04 </wgt>
<wgt id='1602'> +6.8939618e+04 </wgt>
<wgt id='1603'> +6.6903655e+04 </wgt>
<wgt id='1604'> +6.6617793e+04 </wgt>
<wgt id='1605'> +6.9164077e+04 </wgt>
<wgt id='1606'> +7.2381261e+04 </wgt>
<wgt id='1607'> +6.3590383e+04 </wgt>
<wgt id='1608'> +6.5721248e+04 </wgt>
<wgt id='1609'> +7.0702197e+04 </wgt>
<wgt id='1610'> +6.1347401e+04 </wgt>
<wgt id='1611'> +7.4907734e+04 </wgt>
<wgt id='1612'> +6.2160859e+04 </wgt>
<wgt id='1613'> +7.7731008e+04 </wgt>
<wgt id='1614'> +6.8058946e+04 </wgt>
<wgt id='1615'> +6.6600046e+04 </wgt>
<wgt id='1616'> +6.4658610e+04 </wgt>
<wgt id='1617'> +7.0662391e+04 </wgt>
<wgt id='1618'> +6.7899920e+04 </wgt>
<wgt id='1619'> +6.6687941e+04 </wgt>
<wgt id='1620'> +6.8522941e+04 </wgt>
<wgt id='1621'> +6.7369337e+04 </wgt>
<wgt id='1622'> +6.6575640e+04 </wgt>
<wgt id='1623'> +6.8144193e+04 </wgt>
<wgt id='1624'> +6.8769897e+04 </wgt>
<wgt id='1625'> +6.5193579e+04 </wgt>
<wgt id='1626'> +6.9856337e+04 </wgt>
<wgt id='1627'> +6.4120827e+04 </wgt>
<wgt id='1628'> +6.9069399e+04 </wgt>
<wgt id='1629'> +6.8273646e+04 </wgt>
<wgt id='1630'> +6.1961736e+04 </wgt>
<wgt id='1631'> +7.4305768e+04 </wgt>
<wgt id='1632'> +6.4246877e+04 </wgt>
<wgt id='1633'> +7.0998898e+04 </wgt>
<wgt id='1634'> +6.2694244e+04 </wgt>
<wgt id='1635'> +7.2884805e+04 </wgt>
<wgt id='1636'> +7.1621002e+04 </wgt>
<wgt id='1637'> +6.5310693e+04 </wgt>
<wgt id='1638'> +6.6469829e+04 </wgt>
<wgt id='1639'> +6.9555027e+04 </wgt>
<wgt id='1640'> +6.7686789e+04 </wgt>
<wgt id='1641'> +6.6521057e+04 </wgt>
<wgt id='1642'> +6.7425800e+04 </wgt>
<wgt id='1643'> +6.7598678e+04 </wgt>
<wgt id='1644'> +6.2649637e+04 </wgt>
<wgt id='1645'> +7.2622086e+04 </wgt>
<wgt id='1646'> +6.7603118e+04 </wgt>
<wgt id='1647'> +7.0725763e+04 </wgt>
<wgt id='1648'> +6.7117304e+04 </wgt>
<wgt id='1649'> +6.9415247e+04 </wgt>
<wgt id='1650'> +6.8626292e+04 </wgt>
<wgt id='1651'> +6.6156787e+04 </wgt>
<wgt id='1652'> +6.5461434e+04 </wgt>
<wgt id='1653'> +6.6534303e+04 </wgt>
<wgt id='1654'> +6.8646599e+04 </wgt>
<wgt id='1655'> +6.9687049e+04 </wgt>
<wgt id='1656'> +7.3524152e+04 </wgt>
<wgt id='1657'> +7.3413637e+04 </wgt>
<wgt id='1658'> +7.2524110e+04 </wgt>
<wgt id='1659'> +7.0800450e+04 </wgt>
<wgt id='1660'> +7.5489747e+04 </wgt>
<wgt id='1661'> +7.2164139e+04 </wgt>
<wgt id='1662'> +7.6293592e+04 </wgt>
<wgt id='1663'> +7.2560393e+04 </wgt>
<wgt id='1664'> +7.3195092e+04 </wgt>
<wgt id='1665'> +7.4391465e+04 </wgt>
<wgt id='1666'> +7.2637892e+04 </wgt>
<wgt id='1667'> +6.9935749e+04 </wgt>
<wgt id='1668'> +7.6973840e+04 </wgt>
<wgt id='1669'> +7.0801862e+04 </wgt>
<wgt id='1670'> +7.7968933e+04 </wgt>
<wgt id='1671'> +7.1138867e+04 </wgt>
<wgt id='1672'> +7.9045529e+04 </wgt>
<wgt id='1673'> +7.6789206e+04 </wgt>
<wgt id='1674'> +7.1849716e+04 </wgt>
<wgt id='1675'> +7.3206146e+04 </wgt>
<wgt id='1676'> +7.4890104e+04 </wgt>
<wgt id='1677'> +7.8362403e+04 </wgt>
<wgt id='1678'> +6.9618080e+04 </wgt>
<wgt id='1679'> +7.8208328e+04 </wgt>
<wgt id='1680'> +7.0545841e+04 </wgt>
<wgt id='1681'> +7.9557613e+04 </wgt>
<wgt id='1682'> +6.8389463e+04 </wgt>
<wgt id='1683'> +7.3967061e+04 </wgt>
<wgt id='1684'> +7.3680435e+04 </wgt>
<wgt id='1685'> +7.3525731e+04 </wgt>
<wgt id='1686'> +7.3863640e+04 </wgt>
<wgt id='1687'> +6.8182596e+04 </wgt>
<wgt id='1688'> +8.2445519e+04 </wgt>
<wgt id='1689'> +7.4653145e+04 </wgt>
<wgt id='1690'> +7.2639509e+04 </wgt>
<wgt id='1691'> +6.8420907e+04 </wgt>
<wgt id='1692'> +7.9764900e+04 </wgt>
<wgt id='1693'> +7.1670100e+04 </wgt>
<wgt id='1694'> +7.5985269e+04 </wgt>
<wgt id='1695'> +7.2146798e+04 </wgt>
<wgt id='1696'> +7.4505575e+04 </wgt>
<wgt id='1697'> +7.4200452e+04 </wgt>
<wgt id='1698'> +7.2720978e+04 </wgt>
<wgt id='1699'> +7.9592515e+04 </wgt>
<wgt id='1700'> +6.6567320e+04 </wgt>
<wgt id='1701'> +7.7784744e+04 </wgt>
<wgt id='1702'> +7.0031155e+04 </wgt>
<wgt id='1703'> +7.7126252e+04 </wgt>
<wgt id='1704'> +7.0855300e+04 </wgt>
<wgt id='1705'> +7.2587847e+04 </wgt>
<wgt id='1706'> +7.5092329e+04 </wgt>
<wgt id='1707'> +7.3730262e+04 </wgt>
<wgt id='1708'> +7.3683727e+04 </wgt>
<wgt id='1709'> +7.3793244e+04 </wgt>
<wgt id='1710'> +7.5128000e+04 </wgt>
<wgt id='1711'> +6.8986226e+04 </wgt>
<wgt id='1712'> +7.6501397e+04 </wgt>
<wgt id='1713'> +7.4141964e+04 </wgt>
<wgt id='1714'> +7.2216154e+04 </wgt>
<wgt id='1715'> +7.4848265e+04 </wgt>
<wgt id='1716'> +6.9112576e+04 </wgt>
<wgt id='1717'> +7.9129149e+04 </wgt>
<wgt id='1718'> +7.9678613e+04 </wgt>
<wgt id='1719'> +7.8425431e+04 </wgt>
<wgt id='1720'> +7.8987590e+04 </wgt>
<wgt id='1721'> +7.9258467e+04 </wgt>
<wgt id='1722'> +7.8188173e+04 </wgt>
<wgt id='1723'> +8.0668271e+04 </wgt>
<wgt id='1724'> +7.8014030e+04 </wgt>
<wgt id='1725'> +8.0033291e+04 </wgt>
<wgt id='1726'> +7.8491122e+04 </wgt>
<wgt id='1727'> +7.9786988e+04 </wgt>
<wgt id='1728'> +7.8994999e+04 </wgt>
<wgt id='1729'> +7.9257036e+04 </wgt>
<wgt id='1730'> +7.8563731e+04 </wgt>
<wgt id='1731'> +7.9530592e+04 </wgt>
<wgt id='1732'> +7.8980119e+04 </wgt>
<wgt id='1733'> +7.8980119e+04 </wgt>
<wgt id='1734'> +7.7974134e+04 </wgt>
<wgt id='1735'> +7.9913835e+04 </wgt>
<wgt id='1736'> +7.8471482e+04 </wgt>
<wgt id='1737'> +8.0023968e+04 </wgt>
<wgt id='1738'> +7.9500417e+04 </wgt>
<wgt id='1739'> +7.8518504e+04 </wgt>
<wgt id='1740'> +7.8194396e+04 </wgt>
<wgt id='1741'> +8.1375854e+04 </wgt>
<wgt id='1742'> +8.0055244e+04 </wgt>
<wgt id='1743'> +7.8073983e+04 </wgt>
<wgt id='1744'> +7.8474918e+04 </wgt>
<wgt id='1745'> +8.0893110e+04 </wgt>
<wgt id='1746'> +8.0042335e+04 </wgt>
<wgt id='1747'> +7.8592618e+04 </wgt>
<wgt id='1748'> +7.8955275e+04 </wgt>
<wgt id='1749'> +7.9586847e+04 </wgt>
<wgt id='1750'> +7.9100646e+04 </wgt>
<wgt id='1751'> +7.9159972e+04 </wgt>
<wgt id='1752'> +7.8857342e+04 </wgt>
<wgt id='1753'> +7.9506092e+04 </wgt>
<wgt id='1754'> +7.8215946e+04 </wgt>
<wgt id='1755'> +7.9635694e+04 </wgt>
<wgt id='1756'> +8.0104454e+04 </wgt>
<wgt id='1757'> +7.6631142e+04 </wgt>
<wgt id='1758'> +7.8501215e+04 </wgt>
<wgt id='1759'> +7.9483606e+04 </wgt>
<wgt id='1760'> +7.8904593e+04 </wgt>
<wgt id='1761'> +7.9447780e+04 </wgt>
<wgt id='1762'> +7.9585219e+04 </wgt>
<wgt id='1763'> +7.7970898e+04 </wgt>
<wgt id='1764'> +7.9222512e+04 </wgt>
<wgt id='1765'> +7.8722626e+04 </wgt>
<wgt id='1766'> +7.8952603e+04 </wgt>
<wgt id='1767'> +7.9539810e+04 </wgt>
<wgt id='1768'> +7.9601147e+04 </wgt>
<wgt id='1769'> +7.8775225e+04 </wgt>
<wgt id='1770'> +7.9042509e+04 </wgt>
<wgt id='1771'> +7.9627249e+04 </wgt>
<wgt id='1772'> +7.9448508e+04 </wgt>
<wgt id='1773'> +7.9026812e+04 </wgt>
<wgt id='1774'> +8.5524945e+04 </wgt>
<wgt id='1775'> +7.5109667e+04 </wgt>
<wgt id='1776'> +8.1285088e+04 </wgt>
<wgt id='1777'> +7.7083451e+04 </wgt>
<wgt id='1778'> +8.0903988e+04 </wgt>
<wgt id='1779'> +7.8287939e+04 </wgt>
<wgt id='1780'> +7.5905176e+04 </wgt>
<wgt id='1781'> +7.9981045e+04 </wgt>
<wgt id='1782'> +7.9129149e+04 </wgt>
<wgt id='1783'> +7.8682622e+04 </wgt>
<wgt id='1784'> +7.7975047e+04 </wgt>
<wgt id='1785'> +8.0588054e+04 </wgt>
<wgt id='1786'> +8.4607065e+04 </wgt>
<wgt id='1787'> +7.8548921e+04 </wgt>
<wgt id='1788'> +7.8077989e+04 </wgt>
<wgt id='1789'> +7.8134068e+04 </wgt>
<wgt id='1790'> +8.0315264e+04 </wgt>
<wgt id='1791'> +7.8569653e+04 </wgt>
<wgt id='1792'> +7.9576748e+04 </wgt>
<wgt id='1793'> +7.9205255e+04 </wgt>
<wgt id='1794'> +7.6977837e+04 </wgt>
<wgt id='1795'> +7.8484490e+04 </wgt>
<wgt id='1796'> +7.8825956e+04 </wgt>
<wgt id='1797'> +7.7101136e+04 </wgt>
<wgt id='1798'> +7.8515448e+04 </wgt>
<wgt id='1799'> +7.8687356e+04 </wgt>
<wgt id='1800'> +7.1959723e+04 </wgt>
<wgt id='1801'> +7.8110018e+04 </wgt>
<wgt id='1802'> +7.8320937e+04 </wgt>
<wgt id='1803'> +7.6876079e+04 </wgt>
<wgt id='1804'> +7.8485172e+04 </wgt>
<wgt id='1805'> +7.8195067e+04 </wgt>
<wgt id='1806'> +7.7205644e+04 </wgt>
<wgt id='1807'> +7.8612684e+04 </wgt>
<wgt id='1808'> +7.7616449e+04 </wgt>
<wgt id='1809'> +7.9766624e+04 </wgt>
<wgt id='1810'> +7.9096173e+04 </wgt>
<wgt id='1811'> +7.9510010e+04 </wgt>
<wgt id='1812'> +8.0306506e+04 </wgt>
<wgt id='1813'> +8.2144627e+04 </wgt>
<wgt id='1814'> +7.8805854e+04 </wgt>
<wgt id='1815'> +7.7415059e+04 </wgt>
<wgt id='1816'> +7.9480472e+04 </wgt>
<wgt id='1817'> +7.7980403e+04 </wgt>
<wgt id='1818'> +7.8233817e+04 </wgt>
<wgt id='1819'> +7.7397863e+04 </wgt>
<wgt id='1820'> +7.7516185e+04 </wgt>
<wgt id='1821'> +7.8302285e+04 </wgt>
<wgt id='1822'> +7.8768053e+04 </wgt>
<wgt id='1823'> +7.8112952e+04 </wgt>
<wgt id='1824'> +7.5304012e+04 </wgt>
<wgt id='1825'> +7.6972487e+04 </wgt>
<wgt id='1826'> +7.8850137e+04 </wgt>
<wgt id='1827'> +6.7275640e+04 </wgt>
<wgt id='1828'> +6.7305981e+04 </wgt>
<wgt id='1829'> +6.7188180e+04 </wgt>
<wgt id='1830'> +6.7327159e+04 </wgt>
<wgt id='1831'> +6.7165464e+04 </wgt>
<wgt id='1832'> +6.7392034e+04 </wgt>
<wgt id='1833'> +6.7102318e+04 </wgt>
<wgt id='1834'> +6.6770785e+04 </wgt>
<wgt id='1835'> +6.7714439e+04 </wgt>
<wgt id='1836'> +6.7399483e+04 </wgt>
<wgt id='1837'> +6.7084601e+04 </wgt>
<wgt id='1838'> +6.7391450e+04 </wgt>
<wgt id='1839'> +6.7103013e+04 </wgt>
<wgt id='1840'> +6.7171923e+04 </wgt>
<wgt id='1841'> +6.7332038e+04 </wgt>
<wgt id='1842'> +6.7481041e+04 </wgt>
<wgt id='1843'> +6.7310903e+04 </wgt>
<wgt id='1844'> +6.7146589e+04 </wgt>
<wgt id='1845'> +6.7331761e+04 </wgt>
<wgt id='1846'> +6.7299931e+04 </wgt>
<wgt id='1847'> +6.7187455e+04 </wgt>
<wgt id='1848'> +6.8131286e+04 </wgt>
<wgt id='1849'> +6.6269932e+04 </wgt>
<wgt id='1850'> +6.9089323e+04 </wgt>
<wgt id='1851'> +6.5585863e+04 </wgt>
<wgt id='1852'> +7.1940054e+04 </wgt>
<wgt id='1853'> +6.3317143e+04 </wgt>
<wgt id='1854'> +7.0513872e+04 </wgt>
<wgt id='1855'> +6.4494312e+04 </wgt>
<wgt id='1856'> +7.5243427e+04 </wgt>
<wgt id='1857'> +7.5226310e+04 </wgt>
<wgt id='1858'> +7.5236480e+04 </wgt>
<wgt id='1859'> +7.5159923e+04 </wgt>
<wgt id='1860'> +7.5249996e+04 </wgt>
<wgt id='1861'> +7.5686555e+04 </wgt>
<wgt id='1862'> +7.5727346e+04 </wgt>
<wgt id='1863'> +7.4397463e+04 </wgt>
<wgt id='1864'> +7.5426146e+04 </wgt>
<wgt id='1865'> +7.5159664e+04 </wgt>
<wgt id='1866'> +7.4927568e+04 </wgt>
<wgt id='1867'> +7.5178025e+04 </wgt>
<wgt id='1868'> +7.4667858e+04 </wgt>
<wgt id='1869'> +7.5392673e+04 </wgt>
<wgt id='1870'> +7.4712058e+04 </wgt>
<wgt id='1871'> +7.5359203e+04 </wgt>
<wgt id='1872'> +7.5096220e+04 </wgt>
<wgt id='1873'> +7.5264157e+04 </wgt>
<wgt id='1874'> +7.5192612e+04 </wgt>
<wgt id='1875'> +7.5412055e+04 </wgt>
<wgt id='1876'> +7.5099508e+04 </wgt>
<wgt id='1877'> +7.5825701e+04 </wgt>
<wgt id='1878'> +7.5556811e+04 </wgt>
<wgt id='1879'> +7.5290571e+04 </wgt>
<wgt id='1880'> +7.5391040e+04 </wgt>
<wgt id='1881'> +7.5316369e+04 </wgt>
<wgt id='1882'> +7.5119331e+04 </wgt>
<wgt id='1883'> +7.5235744e+04 </wgt>
<wgt id='1884'> +7.5247692e+04 </wgt>
<wgt id='1885'> +7.4952484e+04 </wgt>
<wgt id='1886'> +3.3447298e+04 </wgt>
<wgt id='1887'> +4.3169757e+04 </wgt>
<wgt id='1888'> +5.4379150e+04 </wgt>
<wgt id='1889'> +6.0453509e+04 </wgt>
</rwgt>
</event>
<event npLO=" -1 " npNLO=" 0 ">
 5      0 +7.4519530e+04 2.28649470e+01 7.55820760e-03 1.20415800e-01
        2 -1    0    0  501    0 +0.0000000000e+00 +0.0000000000e+00 +3.3553254870e+02 3.3553254870e+02 0.0000000000e+00 0.0000e+00 -1.0000e+00
       -1 -1    0    0    0  501 +0.0000000000e+00 +0.0000000000e+00 -4.7279471494e+00 4.7279471494e+00 0.0000000000e+00 0.0000e+00 1.0000e+00
       24  2    1    2    0    0 +0.0000000000e+00 +0.0000000000e+00 +3.3080460155e+02 3.4026049585e+02 7.9658776219e+01 0.0000e+00 0.0000e+00
      -15  1    3    3    0    0 -2.5860754744e+01 -1.7300777391e+01 +5.9408633104e+01 6.7086801612e+01 1.7770000000e+00 0.0000e+00 1.0000e+00
       16  1    3    3    0    0 +2.5860754744e+01 +1.7300777391e+01 +2.7139596845e+02 2.7317369424e+02 0.0000000000e+00 0.0000e+00 -1.0000e+00
#aMCatNLO 1  0  0  1  2 0.68919488E+01 0.00000000E+00 -9  5  0 0.00000000E+00 0.00000000E+00 0.00000000E+00 0.00000000E+00 0.00000000E+00
<rwgt>
<wgt id='1001'> +7.4519530e+04 </wgt>
<wgt id='1002'> +7.2184286e+04 </wgt>
<wgt id='1003'> +7.7429031e+04 </wgt>
<wgt id='1004'> +9.4457111e+04 </wgt>
<wgt id='1005'> +9.0772290e+04 </wgt>
<wgt id='1006'> +9.9048627e+04 </wgt>
<wgt id='1007'> +5.7233481e+04 </wgt>
<wgt id='1008'> +5.5949333e+04 </wgt>
<wgt id='1009'> +5.8833006e+04 </wgt>
<wgt id='1010'> +7.4519530e+04 </wgt>
<wgt id='1011'> +7.4546167e+04 </wgt>
<wgt id='1012'> +7.4646740e+04 </wgt>
<wgt id='1013'> +7.4119106e+04 </wgt>
<wgt id='1014'> +7.4655054e+04 </wgt>
<wgt id='1015'> +7.4196314e+04 </wgt>
<wgt id='1016'> +7.4416977e+04 </wgt>
<wgt id='1017'> +7.4584706e+04 </wgt>
<wgt id='1018'> +7.4263071e+04 </wgt>
<wgt id='1019'> +7.4615614e+04 </wgt>
<wgt id='1020'> +7.4237670e+04 </wgt>
<wgt id='1021'> +7.4463582e+04 </wgt>
<wgt id='1022'> +7.4563235e+04 </wgt>
<wgt id='1023'> +7.4608152e+04 </wgt>
<wgt id='1024'> +7.4441104e+04 </wgt>
<wgt id='1025'> +7.4917245e+04 </wgt>
<wgt id='1026'> +7.4254094e+04 </wgt>
<wgt id='1027'> +7.4423585e+04 </wgt>
<wgt id='1028'> +7.4274663e+04 </wgt>
<wgt id='1029'> +7.4665976e+04 </wgt>
<wgt id='1030'> +7.5099415e+04 </wgt>
<wgt id='1031'> +7.4616858e+04 </wgt>
<wgt id='1032'> +7.4751809e+04 </wgt>
<wgt id='1033'> +7.4214347e+04 </wgt>
<wgt id='1034'> +7.4384351e+04 </wgt>
<wgt id='1035'> +7.4244444e+04 </wgt>
<wgt id='1036'> +7.4294402e+04 </wgt>
<wgt id='1037'> +7.5231395e+04 </wgt>
<wgt id='1038'> +7.4603790e+04 </wgt>
<wgt id='1039'> +7.4599508e+04 </wgt>
<wgt id='1040'> +7.4473312e+04 </wgt>
<wgt id='1041'> +7.4807877e+04 </wgt>
<wgt id='1042'> +7.4516991e+04 </wgt>
<wgt id='1043'> +7.4597818e+04 </wgt>
<wgt id='1044'> +7.4551492e+04 </wgt>
<wgt id='1045'> +7.4702283e+04 </wgt>
<wgt id='1046'> +7.4546026e+04 </wgt>
<wgt id='1047'> +7.4381499e+04 </wgt>
<wgt id='1048'> +7.4748826e+04 </wgt>
<wgt id='1049'> +7.4677062e+04 </wgt>
<wgt id='1050'> +7.4685825e+04 </wgt>
<wgt id='1051'> +7.4807387e+04 </wgt>
<wgt id='1052'> +7.4595932e+04 </wgt>
<wgt id='1053'> +7.4261538e+04 </wgt>
<wgt id='1054'> +7.4507122e+04 </wgt>
<wgt id='1055'> +7.4574022e+04 </wgt>
<wgt id='1056'> +7.4623300e+04 </wgt>
<wgt id='1057'> +7.4394198e+04 </wgt>
<wgt id='1058'> +7.4634096e+04 </wgt>
<wgt id='1059'> +7.4470680e+04 </wgt>
<wgt id='1060'> +7.4459979e+04 </wgt>
<wgt id='1061'> +7.4577668e+04 </wgt>
<wgt id='1062'> +7.4733856e+04 </wgt>
<wgt id='1063'> +7.4531987e+04 </wgt>
<wgt id='1064'> +7.4430558e+04 </wgt>
<wgt id='1065'> +7.4472770e+04 </wgt>
<wgt id='1066'> +7.4747691e+04 </wgt>
<wgt id='1067'> +7.4456078e+04 </wgt>
<wgt id='1068'> +7.4555102e+04 </wgt>
<wgt id='1069'> +7.4401410e+04 </wgt>
<wgt id='1070'> +7.4489663e+04 </wgt>
<wgt id='1071'> +7.4549300e+04 </wgt>
<wgt id='1072'> +7.4340548e+04 </wgt>
<wgt id='1073'> +7.4594595e+04 </wgt>
<wgt id='1074'> +7.4533249e+04 </wgt>
<wgt id='1075'> +7.4511931e+04 </wgt>
<wgt id='1076'> +7.4662464e+04 </wgt>
<wgt id='1077'> +7.4466380e+04 </wgt>
<wgt id='1078'> +7.4569918e+04 </wgt>
<wgt id='1079'> +7.4606187e+04 </wgt>
<wgt id='1080'> +7.4468369e+04 </wgt>
<wgt id='1081'> +7.4458787e+04 </wgt>
<wgt id='1082'> +7.4616563e+04 </wgt>
<wgt id='1083'> +7.4564731e+04 </wgt>
<wgt id='1084'> +7.4641975e+04 </wgt>
<wgt id='1085'> +7.4452071e+04 </wgt>
<wgt id='1086'> +7.4481412e+04 </wgt>
<wgt id='1087'> +7.4506913e+04 </wgt>
<wgt id='1088'> +7.4534132e+04 </wgt>
<wgt id='1089'> +7.4481331e+04 </wgt>
<wgt id='1090'> +7.4636738e+04 </wgt>
<wgt id='1091'> +7.4507371e+04 </wgt>
<wgt id='1092'> +7.4440315e+04 </wgt>
<wgt id='1093'> +7.4599938e+04 </wgt>
<wgt id='1094'> +7.4562593e+04 </wgt>
<wgt id='1095'> +7.4524270e+04 </wgt>
<wgt id='1096'> +7.4512039e+04 </wgt>
<wgt id='1097'> +7.4664174e+04 </wgt>
<wgt id='1098'> +7.4459714e+04 </wgt>
<wgt id='1099'> +7.4581324e+04 </wgt>
<wgt id='1100'> +7.4515293e+04 </wgt>
<wgt id='1101'> +7.4547770e+04 </wgt>
<wgt id='1102'> +7.4528458e+04 </wgt>
<wgt id='1103'> +7.4539841e+04 </wgt>
<wgt id='1104'> +7.4484591e+04 </wgt>
<wgt id='1105'> +7.4507199e+04 </wgt>
<wgt id='1106'> +7.4522482e+04 </wgt>
<wgt id='1107'> +7.4465246e+04 </wgt>
<wgt id='1108'> +7.4524760e+04 </wgt>
<wgt id='1109'> +7.4496351e+04 </wgt>
<wgt id='1110'> +7.4519532e+04 </wgt>
<wgt id='1111'> +7.3344109e+04 </wgt>
<wgt id='1112'> +7.5644338e+04 </wgt>
<wgt id='1113'> +7.4519532e+04 </wgt>
<wgt id='1114'> +7.7055965e+04 </wgt>
<wgt id='1115'> +7.4703472e+04 </wgt>
<wgt id='1116'> +6.9789193e+04 </wgt>
<wgt id='1117'> +7.2953295e+04 </wgt>
<wgt id='1118'> +7.3570972e+04 </wgt>
<wgt id='1119'> +7.6128207e+04 </wgt>
<wgt id='1120'> +7.6271483e+04 </wgt>
<wgt id='1121'> +7.2437538e+04 </wgt>
<wgt id='1122'> +7.2684145e+04 </wgt>
<wgt id='1123'> +7.4642146e+04 </wgt>
<wgt id='1124'> +7.4240071e+04 </wgt>
<wgt id='1125'> +7.2644556e+04 </wgt>
<wgt id='1126'> +7.4475909e+04 </wgt>
<wgt id='1127'> +7.4474666e+04 </wgt>
<wgt id='1128'> +7.5273202e+04 </wgt>
<wgt id='1129'> +7.5979853e+04 </wgt>
<wgt id='1130'> +7.6236833e+04 </wgt>
<wgt id='1131'> +7.4068764e+04 </wgt>
<wgt id='1132'> +7.7139858e+04 </wgt>
<wgt id='1133'> +7.2884866e+04 </wgt>
<wgt id='1134'> +7.4009321e+04 </wgt>
<wgt id='1135'> +7.6115843e+04 </wgt>
<wgt id='1136'> +7.5766582e+04 </wgt>
<wgt id='1137'> +7.4383522e+04 </wgt>
<wgt id='1138'> +7.3720145e+04 </wgt>
<wgt id='1139'> +7.5113862e+04 </wgt>
<wgt id='1140'> +7.7867804e+04 </wgt>
<wgt id='1141'> +7.4486487e+04 </wgt>
<wgt id='1142'> +7.7081243e+04 </wgt>
<wgt id='1143'> +7.5042058e+04 </wgt>
<wgt id='1144'> +7.3080549e+04 </wgt>
<wgt id='1145'> +7.2573871e+04 </wgt>
<wgt id='1146'> +7.5217396e+04 </wgt>
<wgt id='1147'> +7.3110691e+04 </wgt>
<wgt id='1148'> +7.5150470e+04 </wgt>
<wgt id='1149'> +7.4093820e+04 </wgt>
<wgt id='1150'> +7.4225387e+04 </wgt>
<wgt id='1151'> +7.3861824e+04 </wgt>
<wgt id='1152'> +7.5199373e+04 </wgt>
<wgt id='1153'> +7.4792625e+04 </wgt>
<wgt id='1154'> +7.4105637e+04 </wgt>
<wgt id='1155'> +7.6416035e+04 </wgt>
<wgt id='1156'> +7.5104076e+04 </wgt>
<wgt id='1157'> +7.4949776e+04 </wgt>
<wgt id='1158'> +7.4143769e+04 </wgt>
<wgt id='1159'> +7.6724559e+04 </wgt>
<wgt id='1160'> +7.5188599e+04 </wgt>
<wgt id='1161'> +7.3127325e+04 </wgt>
<wgt id='1162'> +7.7076896e+04 </wgt>
<wgt id='1163'> +7.5757775e+04 </wgt>
<wgt id='1164'> +7.3429786e+04 </wgt>
<wgt id='1165'> +7.4264314e+04 </wgt>
<wgt id='1166'> +7.5783574e+04 </wgt>
<wgt id='1167'> +7.6343309e+04 </wgt>
<wgt id='1168'> +7.3130896e+04 </wgt>
<wgt id='1169'> +7.4113400e+04 </wgt>
<wgt id='1170'> +7.6496491e+04 </wgt>
<wgt id='1171'> +7.4283941e+04 </wgt>
<wgt id='1172'> +7.4514910e+04 </wgt>
<wgt id='1173'> +7.3812727e+04 </wgt>
<wgt id='1174'> +7.6023959e+04 </wgt>
<wgt id='1175'> +7.5406280e+04 </wgt>
<wgt id='1176'> +7.6011851e+04 </wgt>
<wgt id='1177'> +7.1513942e+04 </wgt>
<wgt id='1178'> +7.5405076e+04 </wgt>
<wgt id='1179'> +7.2336648e+04 </wgt>
<wgt id='1180'> +7.5460647e+04 </wgt>
<wgt id='1181'> +7.6727047e+04 </wgt>
<wgt id='1182'> +7.6008871e+04 </wgt>
<wgt id='1183'> +7.5667731e+04 </wgt>
<wgt id='1184'> +7.3227175e+04 </wgt>
<wgt id='1185'> +7.8433555e+04 </wgt>
<wgt id='1186'> +6.8870194e+04 </wgt>
<wgt id='1187'> +7.1984754e+04 </wgt>
<wgt id='1188'> +7.3550777e+04 </wgt>
<wgt id='1189'> +7.5165030e+04 </wgt>
<wgt id='1190'> +7.3754226e+04 </wgt>
<wgt id='1191'> +7.4883087e+04 </wgt>
<wgt id='1192'> +7.3684644e+04 </wgt>
<wgt id='1193'> +7.5159366e+04 </wgt>
<wgt id='1194'> +7.4386213e+04 </wgt>
<wgt id='1195'> +7.5979853e+04 </wgt>
<wgt id='1196'> +7.4771156e+04 </wgt>
<wgt id='1197'> +7.3603980e+04 </wgt>
<wgt id='1198'> +7.3513407e+04 </wgt>
<wgt id='1199'> +7.8109018e+04 </wgt>
<wgt id='1200'> +7.3021495e+04 </wgt>
<wgt id='1201'> +7.5527674e+04 </wgt>
<wgt id='1202'> +7.0633257e+04 </wgt>
<wgt id='1203'> +7.2991388e+04 </wgt>
<wgt id='1204'> +7.4958195e+04 </wgt>
<wgt id='1205'> +7.2692724e+04 </wgt>
<wgt id='1206'> +7.3873171e+04 </wgt>
<wgt id='1207'> +7.5785449e+04 </wgt>
<wgt id='1208'> +7.3475837e+04 </wgt>
<wgt id='1209'> +7.4283111e+04 </wgt>
<wgt id='1210'> +7.3845341e+04 </wgt>
<wgt id='1211'> +7.2999386e+04 </wgt>
<wgt id='1212'> +7.2528957e+04 </wgt>
<wgt id='1213'> +7.4284042e+04 </wgt>
<wgt id='1214'> +7.4500983e+04 </wgt>
<wgt id='1215'> +6.9656199e+04 </wgt>
<wgt id='1216'> +7.0464170e+04 </wgt>
<wgt id='1217'> +7.1259621e+04 </wgt>
<wgt id='1218'> +7.2379269e+04 </wgt>
<wgt id='1219'> +7.4305078e+04 </wgt>
<wgt id='1220'> +7.5028946e+04 </wgt>
<wgt id='1221'> +7.6990751e+04 </wgt>
<wgt id='1222'> +7.7781755e+04 </wgt>
<wgt id='1223'> +7.2959595e+04 </wgt>
<wgt id='1224'> +7.2953081e+04 </wgt>
<wgt id='1225'> +7.3198632e+04 </wgt>
<wgt id='1226'> +7.2769731e+04 </wgt>
<wgt id='1227'> +7.3366518e+04 </wgt>
<wgt id='1228'> +7.2953548e+04 </wgt>
<wgt id='1229'> +7.2640238e+04 </wgt>
<wgt id='1230'> +7.3082921e+04 </wgt>
<wgt id='1231'> +7.3173101e+04 </wgt>
<wgt id='1232'> +7.3083605e+04 </wgt>
<wgt id='1233'> +7.2571888e+04 </wgt>
<wgt id='1234'> +7.2876971e+04 </wgt>
<wgt id='1235'> +7.3074414e+04 </wgt>
<wgt id='1236'> +7.3248123e+04 </wgt>
<wgt id='1237'> +7.2961696e+04 </wgt>
<wgt id='1238'> +7.2746227e+04 </wgt>
<wgt id='1239'> +7.3435950e+04 </wgt>
<wgt id='1240'> +7.2756614e+04 </wgt>
<wgt id='1241'> +7.3187682e+04 </wgt>
<wgt id='1242'> +7.2998375e+04 </wgt>
<wgt id='1243'> +7.2778115e+04 </wgt>
<wgt id='1244'> +7.3301950e+04 </wgt>
<wgt id='1245'> +7.2931377e+04 </wgt>
<wgt id='1246'> +7.2752264e+04 </wgt>
<wgt id='1247'> +7.3472543e+04 </wgt>
<wgt id='1248'> +7.2717096e+04 </wgt>
<wgt id='1249'> +7.2969116e+04 </wgt>
<wgt id='1250'> +7.2929561e+04 </wgt>
<wgt id='1251'> +7.2924112e+04 </wgt>
<wgt id='1252'> +7.3623477e+04 </wgt>
<wgt id='1253'> +7.3040273e+04 </wgt>
<wgt id='1254'> +7.2521731e+04 </wgt>
<wgt id='1255'> +7.3102335e+04 </wgt>
<wgt id='1256'> +7.2835845e+04 </wgt>
<wgt id='1257'> +7.3023473e+04 </wgt>
<wgt id='1258'> +7.2962547e+04 </wgt>
<wgt id='1259'> +7.3008403e+04 </wgt>
<wgt id='1260'> +7.2863444e+04 </wgt>
<wgt id='1261'> +7.2946772e+04 </wgt>
<wgt id='1262'> +7.2902006e+04 </wgt>
<wgt id='1263'> +7.2969876e+04 </wgt>
<wgt id='1264'> +7.2810071e+04 </wgt>
<wgt id='1265'> +7.2994223e+04 </wgt>
<wgt id='1266'> +7.2932896e+04 </wgt>
<wgt id='1267'> +7.2930150e+04 </wgt>
<wgt id='1268'> +7.2998993e+04 </wgt>
<wgt id='1269'> +7.2857184e+04 </wgt>
<wgt id='1270'> +7.2861598e+04 </wgt>
<wgt id='1271'> +7.3115521e+04 </wgt>
<wgt id='1272'> +7.3168793e+04 </wgt>
<wgt id='1273'> +7.2898064e+04 </wgt>
<wgt id='1274'> +7.2864248e+04 </wgt>
<wgt id='1275'> +7.2955911e+04 </wgt>
<wgt id='1276'> +7.2863872e+04 </wgt>
<wgt id='1277'> +7.3022704e+04 </wgt>
<wgt id='1278'> +7.3058459e+04 </wgt>
<wgt id='1279'> +7.3069633e+04 </wgt>
<wgt id='1280'> +7.2844259e+04 </wgt>
<wgt id='1281'> +7.2782481e+04 </wgt>
<wgt id='1282'> +7.2911169e+04 </wgt>
<wgt id='1283'> +7.3080252e+04 </wgt>
<wgt id='1284'> +7.3002586e+04 </wgt>
<wgt id='1285'> +7.2950802e+04 </wgt>
<wgt id='1286'> +7.3039235e+04 </wgt>
<wgt id='1287'> +7.3029781e+04 </wgt>
<wgt id='1288'> +7.3029082e+04 </wgt>
<wgt id='1289'> +7.2849900e+04 </wgt>
<wgt id='1290'> +7.2905406e+04 </wgt>
<wgt id='1291'> +7.2968653e+04 </wgt>
<wgt id='1292'> +7.2854116e+04 </wgt>
<wgt id='1293'> +7.3052847e+04 </wgt>
<wgt id='1294'> +7.3071554e+04 </wgt>
<wgt id='1295'> +7.3104010e+04 </wgt>
<wgt id='1296'> +7.2944568e+04 </wgt>
<wgt id='1297'> +7.2939090e+04 </wgt>
<wgt id='1298'> +7.2835099e+04 </wgt>
<wgt id='1299'> +7.2882395e+04 </wgt>
<wgt id='1300'> +7.3055326e+04 </wgt>
<wgt id='1301'> +7.2960853e+04 </wgt>
<wgt id='1302'> +7.2908111e+04 </wgt>
<wgt id='1303'> +7.2991779e+04 </wgt>
<wgt id='1304'> +7.3053650e+04 </wgt>
<wgt id='1305'> +7.3035836e+04 </wgt>
<wgt id='1306'> +7.3089626e+04 </wgt>
<wgt id='1307'> +7.2939845e+04 </wgt>
<wgt id='1308'> +7.3011467e+04 </wgt>
<wgt id='1309'> +7.2929570e+04 </wgt>
<wgt id='1310'> +7.2934617e+04 </wgt>
<wgt id='1311'> +7.2940284e+04 </wgt>
<wgt id='1312'> +7.2925801e+04 </wgt>
<wgt id='1313'> +7.2976358e+04 </wgt>
<wgt id='1314'> +7.2926306e+04 </wgt>
<wgt id='1315'> +7.2936097e+04 </wgt>
<wgt id='1316'> +7.3023848e+04 </wgt>
<wgt id='1317'> +7.3002537e+04 </wgt>
<wgt id='1318'> +7.2991375e+04 </wgt>
<wgt id='1319'> +7.2975503e+04 </wgt>
<wgt id='1320'> +7.3004349e+04 </wgt>
<wgt id='1321'> +7.2910722e+04 </wgt>
<wgt id='1322'> +7.3072022e+04 </wgt>
<wgt id='1323'> +7.2889072e+04 </wgt>
<wgt id='1324'> +7.1837601e+04 </wgt>
<wgt id='1325'> +7.4190724e+04 </wgt>
<wgt id='1326'> +7.1337062e+04 </wgt>
<wgt id='1327'> +6.7800714e+04 </wgt>
<wgt id='1328'> +7.4667893e+04 </wgt>
<wgt id='1329'> +7.3688887e+04 </wgt>
<wgt id='1330'> +7.5115100e+04 </wgt>
<wgt id='1331'> +7.5911802e+04 </wgt>
<wgt id='1332'> +7.4245079e+04 </wgt>
<wgt id='1333'> +7.4337225e+04 </wgt>
<wgt id='1334'> +7.2690010e+04 </wgt>
<wgt id='1335'> +7.4763663e+04 </wgt>
<wgt id='1336'> +7.5466639e+04 </wgt>
<wgt id='1337'> +7.4194066e+04 </wgt>
<wgt id='1338'> +7.5827513e+04 </wgt>
<wgt id='1339'> +7.5124467e+04 </wgt>
<wgt id='1340'> +7.3376304e+04 </wgt>
<wgt id='1341'> +7.3888915e+04 </wgt>
<wgt id='1342'> +7.5217038e+04 </wgt>
<wgt id='1343'> +7.5682892e+04 </wgt>
<wgt id='1344'> +7.4477861e+04 </wgt>
<wgt id='1345'> +7.5904871e+04 </wgt>
<wgt id='1346'> +7.5147530e+04 </wgt>
<wgt id='1347'> +7.5290937e+04 </wgt>
<wgt id='1348'> +7.3046587e+04 </wgt>
<wgt id='1349'> +7.5719310e+04 </wgt>
<wgt id='1350'> +7.4019769e+04 </wgt>
<wgt id='1351'> +7.4535874e+04 </wgt>
<wgt id='1352'> +7.6208813e+04 </wgt>
<wgt id='1353'> +7.6038658e+04 </wgt>
<wgt id='1354'> +7.5034588e+04 </wgt>
<wgt id='1355'> +7.5081242e+04 </wgt>
<wgt id='1356'> +7.4245952e+04 </wgt>
<wgt id='1357'> +7.4452663e+04 </wgt>
<wgt id='1358'> +7.4284805e+04 </wgt>
<wgt id='1359'> +7.4509205e+04 </wgt>
<wgt id='1360'> +7.5025680e+04 </wgt>
<wgt id='1361'> +7.5805890e+04 </wgt>
<wgt id='1362'> +7.6438315e+04 </wgt>
<wgt id='1363'> +7.6018298e+04 </wgt>
<wgt id='1364'> +7.5239596e+04 </wgt>
<wgt id='1365'> +7.4938842e+04 </wgt>
<wgt id='1366'> +7.4719543e+04 </wgt>
<wgt id='1367'> +7.5809848e+04 </wgt>
<wgt id='1368'> +7.4764062e+04 </wgt>
<wgt id='1369'> +7.2475041e+04 </wgt>
<wgt id='1370'> +7.4261548e+04 </wgt>
<wgt id='1371'> +7.5073400e+04 </wgt>
<wgt id='1372'> +7.5927239e+04 </wgt>
<wgt id='1373'> +7.3685863e+04 </wgt>
<wgt id='1374'> +7.5225806e+04 </wgt>
<wgt id='1375'> +7.4489173e+04 </wgt>
<wgt id='1376'> +7.5320981e+04 </wgt>
<wgt id='1377'> +7.4432765e+04 </wgt>
<wgt id='1378'> +7.3352568e+04 </wgt>
<wgt id='1379'> +7.4922156e+04 </wgt>
<wgt id='1380'> +7.4632182e+04 </wgt>
<wgt id='1381'> +7.5138240e+04 </wgt>
<wgt id='1382'> +7.3787937e+04 </wgt>
<wgt id='1383'> +7.5257388e+04 </wgt>
<wgt id='1384'> +7.5146499e+04 </wgt>
<wgt id='1385'> +7.4506268e+04 </wgt>
<wgt id='1386'> +7.4920830e+04 </wgt>
<wgt id='1387'> +7.2768313e+04 </wgt>
<wgt id='1388'> +7.5201781e+04 </wgt>
<wgt id='1389'> +7.4360173e+04 </wgt>
<wgt id='1390'> +7.3236783e+04 </wgt>
<wgt id='1391'> +7.3868650e+04 </wgt>
<wgt id='1392'> +7.4257695e+04 </wgt>
<wgt id='1393'> +7.2644178e+04 </wgt>
<wgt id='1394'> +7.4938842e+04 </wgt>
<wgt id='1395'> +7.5666865e+04 </wgt>
<wgt id='1396'> +7.2930368e+04 </wgt>
<wgt id='1397'> +7.5239310e+04 </wgt>
<wgt id='1398'> +7.5245077e+04 </wgt>
<wgt id='1399'> +7.5057415e+04 </wgt>
<wgt id='1400'> +7.5374917e+04 </wgt>
<wgt id='1401'> +7.5363289e+04 </wgt>
<wgt id='1402'> +7.4621376e+04 </wgt>
<wgt id='1403'> +7.4620071e+04 </wgt>
<wgt id='1404'> +7.5408733e+04 </wgt>
<wgt id='1405'> +7.3638312e+04 </wgt>
<wgt id='1406'> +7.3147045e+04 </wgt>
<wgt id='1407'> +7.5197601e+04 </wgt>
<wgt id='1408'> +7.4131594e+04 </wgt>
<wgt id='1409'> +7.2977463e+04 </wgt>
<wgt id='1410'> +7.5289423e+04 </wgt>
<wgt id='1411'> +7.6066436e+04 </wgt>
<wgt id='1412'> +7.5126548e+04 </wgt>
<wgt id='1413'> +7.6202804e+04 </wgt>
<wgt id='1414'> +7.3681465e+04 </wgt>
<wgt id='1415'> +7.3418431e+04 </wgt>
<wgt id='1416'> +7.4327715e+04 </wgt>
<wgt id='1417'> +7.4030565e+04 </wgt>
<wgt id='1418'> +7.5186451e+04 </wgt>
<wgt id='1419'> +7.4467166e+04 </wgt>
<wgt id='1420'> +7.4406238e+04 </wgt>
<wgt id='1421'> +7.4678341e+04 </wgt>
<wgt id='1422'> +7.4955524e+04 </wgt>
<wgt id='1423'> +7.5540964e+04 </wgt>
<wgt id='1424'> +7.2494608e+04 </wgt>
<wgt id='1425'> +7.3719099e+04 </wgt>
<wgt id='1426'> +7.4085638e+04 </wgt>
<wgt id='1427'> +7.5417774e+04 </wgt>
<wgt id='1428'> +7.4849755e+04 </wgt>
<wgt id='1429'> +7.4284141e+04 </wgt>
<wgt id='1430'> +7.5022586e+04 </wgt>
<wgt id='1431'> +7.4654123e+04 </wgt>
<wgt id='1432'> +7.4900979e+04 </wgt>
<wgt id='1433'> +7.4749732e+04 </wgt>
<wgt id='1434'> +7.4581562e+04 </wgt>
<wgt id='1435'> +7.4483767e+04 </wgt>
<wgt id='1436'> +7.4505837e+04 </wgt>
<wgt id='1437'> +7.4973125e+04 </wgt>
<wgt id='1438'> +7.4803037e+04 </wgt>
<wgt id='1439'> +7.4372290e+04 </wgt>
<wgt id='1440'> +7.4644852e+04 </wgt>
<wgt id='1441'> +7.4494276e+04 </wgt>
<wgt id='1442'> +7.4881074e+04 </wgt>
<wgt id='1443'> +7.4456904e+04 </wgt>
<wgt id='1444'> +7.4375897e+04 </wgt>
<wgt id='1445'> +7.4833546e+04 </wgt>
<wgt id='1446'> +7.4515114e+04 </wgt>
<wgt id='1447'> +7.4422686e+04 </wgt>
<wgt id='1448'> +7.4851586e+04 </wgt>
<wgt id='1449'> +7.4673678e+04 </wgt>
<wgt id='1450'> +7.4594557e+04 </wgt>
<wgt id='1451'> +7.4444507e+04 </wgt>
<wgt id='1452'> +7.4532607e+04 </wgt>
<wgt id='1453'> +7.4606755e+04 </wgt>
<wgt id='1454'> +7.4530178e+04 </wgt>
<wgt id='1455'> +7.4761144e+04 </wgt>
<wgt id='1456'> +7.4657318e+04 </wgt>
<wgt id='1457'> +7.4685599e+04 </wgt>
<wgt id='1458'> +7.4453013e+04 </wgt>
<wgt id='1459'> +7.4438213e+04 </wgt>
<wgt id='1460'> +7.4689977e+04 </wgt>
<wgt id='1461'> +7.4617893e+04 </wgt>
<wgt id='1462'> +7.4642432e+04 </wgt>
<wgt id='1463'> +7.4666133e+04 </wgt>
<wgt id='1464'> +7.4547892e+04 </wgt>
<wgt id='1465'> +7.4684954e+04 </wgt>
<wgt id='1466'> +7.4647078e+04 </wgt>
<wgt id='1467'> +7.4751358e+04 </wgt>
<wgt id='1468'> +7.4667613e+04 </wgt>
<wgt id='1469'> +7.4659241e+04 </wgt>
<wgt id='1470'> +7.4651475e+04 </wgt>
<wgt id='1471'> +7.4635353e+04 </wgt>
<wgt id='1472'> +7.4635741e+04 </wgt>
<wgt id='1473'> +7.4703360e+04 </wgt>
<wgt id='1474'> +7.4704045e+04 </wgt>
<wgt id='1475'> +7.4623031e+04 </wgt>
<wgt id='1476'> +7.4624822e+04 </wgt>
<wgt id='1477'> +7.4651436e+04 </wgt>
<wgt id='1478'> +7.4618855e+04 </wgt>
<wgt id='1479'> +7.4716999e+04 </wgt>
<wgt id='1480'> +7.4655923e+04 </wgt>
<wgt id='1481'> +7.4672687e+04 </wgt>
<wgt id='1482'> +7.4284141e+04 </wgt>
<wgt id='1483'> +7.5022586e+04 </wgt>
<wgt id='1484'> +7.4942902e+04 </wgt>
<wgt id='1485'> +7.5298311e+04 </wgt>
<wgt id='1486'> +7.5256790e+04 </wgt>
<wgt id='1487'> +7.4852150e+04 </wgt>
<wgt id='1488'> +7.4890246e+04 </wgt>
<wgt id='1489'> +7.5352733e+04 </wgt>
<wgt id='1490'> +7.3517084e+04 </wgt>
<wgt id='1491'> +7.4812450e+04 </wgt>
<wgt id='1492'> +7.3534219e+04 </wgt>
<wgt id='1493'> +7.5435021e+04 </wgt>
<wgt id='1494'> +7.4088292e+04 </wgt>
<wgt id='1495'> +7.4465331e+04 </wgt>
<wgt id='1496'> +7.4511134e+04 </wgt>
<wgt id='1497'> +7.3821358e+04 </wgt>
<wgt id='1498'> +7.5881918e+04 </wgt>
<wgt id='1499'> +7.5502252e+04 </wgt>
<wgt id='1500'> +7.3096418e+04 </wgt>
<wgt id='1501'> +7.4448524e+04 </wgt>
<wgt id='1502'> +7.6084863e+04 </wgt>
<wgt id='1503'> +7.3892422e+04 </wgt>
<wgt id='1504'> +7.4593412e+04 </wgt>
<wgt id='1505'> +7.4389412e+04 </wgt>
<wgt id='1506'> +7.5094404e+04 </wgt>
<wgt id='1507'> +7.4247098e+04 </wgt>
<wgt id='1508'> +7.3643486e+04 </wgt>
<wgt id='1509'> +7.4426401e+04 </wgt>
<wgt id='1510'> +7.5426558e+04 </wgt>
<wgt id='1511'> +7.5076694e+04 </wgt>
<wgt id='1512'> +7.5014415e+04 </wgt>
<wgt id='1513'> +7.4671139e+04 </wgt>
<wgt id='1514'> +7.5538284e+04 </wgt>
<wgt id='1515'> +7.4951948e+04 </wgt>
<wgt id='1516'> +7.3186845e+04 </wgt>
<wgt id='1517'> +7.5437115e+04 </wgt>
<wgt id='1518'> +7.5750828e+04 </wgt>
<wgt id='1519'> +7.4647029e+04 </wgt>
<wgt id='1520'> +7.4103081e+04 </wgt>
<wgt id='1521'> +7.3937103e+04 </wgt>
<wgt id='1522'> +7.5286678e+04 </wgt>
<wgt id='1523'> +7.5018097e+04 </wgt>
<wgt id='1524'> +7.5295680e+04 </wgt>
<wgt id='1525'> +7.5729316e+04 </wgt>
<wgt id='1526'> +7.5237027e+04 </wgt>
<wgt id='1527'> +7.5400717e+04 </wgt>
<wgt id='1528'> +7.5231498e+04 </wgt>
<wgt id='1529'> +7.5277849e+04 </wgt>
<wgt id='1530'> +7.4353798e+04 </wgt>
<wgt id='1531'> +7.4362773e+04 </wgt>
<wgt id='1532'> +7.3130293e+04 </wgt>
<wgt id='1533'> +7.4451124e+04 </wgt>
<wgt id='1534'> +7.4711235e+04 </wgt>
<wgt id='1535'> +7.3863096e+04 </wgt>
<wgt id='1536'> +7.6357529e+04 </wgt>
<wgt id='1537'> +7.4931547e+04 </wgt>
<wgt id='1538'> +7.6979053e+04 </wgt>
<wgt id='1539'> +7.5251244e+04 </wgt>
<wgt id='1540'> +7.4795000e+04 </wgt>
<wgt id='1541'> +7.4996257e+04 </wgt>
<wgt id='1542'> +7.6094730e+04 </wgt>
<wgt id='1543'> +7.5107579e+04 </wgt>
<wgt id='1544'> +7.6100674e+04 </wgt>
<wgt id='1545'> +7.4784963e+04 </wgt>
<wgt id='1546'> +7.5164900e+04 </wgt>
<wgt id='1547'> +7.5594396e+04 </wgt>
<wgt id='1548'> +7.4377070e+04 </wgt>
<wgt id='1549'> +7.5017789e+04 </wgt>
<wgt id='1550'> +7.4465904e+04 </wgt>
<wgt id='1551'> +7.6088098e+04 </wgt>
<wgt id='1552'> +7.4740161e+04 </wgt>
<wgt id='1553'> +7.5900954e+04 </wgt>
<wgt id='1554'> +7.2838245e+04 </wgt>
<wgt id='1555'> +7.5936533e+04 </wgt>
<wgt id='1556'> +7.5892593e+04 </wgt>
<wgt id='1557'> +7.4149752e+04 </wgt>
<wgt id='1558'> +7.5678493e+04 </wgt>
<wgt id='1559'> +7.5874833e+04 </wgt>
<wgt id='1560'> +7.5550316e+04 </wgt>
<wgt id='1561'> +7.5825501e+04 </wgt>
<wgt id='1562'> +7.4802407e+04 </wgt>
<wgt id='1563'> +7.6621224e+04 </wgt>
<wgt id='1564'> +7.4151428e+04 </wgt>
<wgt id='1565'> +7.3779723e+04 </wgt>
<wgt id='1566'> +7.4950954e+04 </wgt>
<wgt id='1567'> +7.7028872e+04 </wgt>
<wgt id='1568'> +7.5308697e+04 </wgt>
<wgt id='1569'> +7.6328332e+04 </wgt>
<wgt id='1570'> +7.6423639e+04 </wgt>
<wgt id='1571'> +7.6086251e+04 </wgt>
<wgt id='1572'> +7.4225186e+04 </wgt>
<wgt id='1573'> +7.6247472e+04 </wgt>
<wgt id='1574'> +7.3304443e+04 </wgt>
<wgt id='1575'> +7.4131082e+04 </wgt>
<wgt id='1576'> +7.5776447e+04 </wgt>
<wgt id='1577'> +7.4053960e+04 </wgt>
<wgt id='1578'> +7.4662604e+04 </wgt>
<wgt id='1579'> +7.5298901e+04 </wgt>
<wgt id='1580'> +7.5335540e+04 </wgt>
<wgt id='1581'> +7.5637962e+04 </wgt>
<wgt id='1582'> +7.5586786e+04 </wgt>
<wgt id='1583'> +7.2685026e+04 </wgt>
<wgt id='1584'> +7.3061593e+04 </wgt>
<wgt id='1585'> +7.2643223e+04 </wgt>
<wgt id='1586'> +6.6708452e+04 </wgt>
<wgt id='1587'> +7.3598388e+04 </wgt>
<wgt id='1588'> +7.4284141e+04 </wgt>
<wgt id='1589'> +7.4295244e+04 </wgt>
<wgt id='1590'> +7.4686043e+04 </wgt>
<wgt id='1591'> +7.5022586e+04 </wgt>
<wgt id='1592'> +7.5318389e+04 </wgt>
<wgt id='1593'> +7.3487802e+04 </wgt>
<wgt id='1594'> +7.3390874e+04 </wgt>
<wgt id='1595'> +7.3242236e+04 </wgt>
<wgt id='1596'> +7.2834919e+04 </wgt>
<wgt id='1597'> +7.4286719e+04 </wgt>
<wgt id='1598'> +7.3109426e+04 </wgt>
<wgt id='1599'> +7.3660726e+04 </wgt>
<wgt id='1600'> +7.1540998e+04 </wgt>
<wgt id='1601'> +7.5258678e+04 </wgt>
<wgt id='1602'> +7.2613843e+04 </wgt>
<wgt id='1603'> +7.4373849e+04 </wgt>
<wgt id='1604'> +7.3394580e+04 </wgt>
<wgt id='1605'> +7.4019557e+04 </wgt>
<wgt id='1606'> +7.2511614e+04 </wgt>
<wgt id='1607'> +7.3718076e+04 </wgt>
<wgt id='1608'> +7.2416248e+04 </wgt>
<wgt id='1609'> +7.3646247e+04 </wgt>
<wgt id='1610'> +7.3127696e+04 </wgt>
<wgt id='1611'> +7.3455322e+04 </wgt>
<wgt id='1612'> +7.4374863e+04 </wgt>
<wgt id='1613'> +7.1331845e+04 </wgt>
<wgt id='1614'> +7.3208128e+04 </wgt>
<wgt id='1615'> +7.3925803e+04 </wgt>
<wgt id='1616'> +7.2565669e+04 </wgt>
<wgt id='1617'> +7.3957814e+04 </wgt>
<wgt id='1618'> +7.3679667e+04 </wgt>
<wgt id='1619'> +7.3096720e+04 </wgt>
<wgt id='1620'> +7.3192362e+04 </wgt>
<wgt id='1621'> +7.3544193e+04 </wgt>
<wgt id='1622'> +7.3371737e+04 </wgt>
<wgt id='1623'> +7.3012609e+04 </wgt>
<wgt id='1624'> +7.3669361e+04 </wgt>
<wgt id='1625'> +7.2226700e+04 </wgt>
<wgt id='1626'> +7.2017520e+04 </wgt>
<wgt id='1627'> +7.4777074e+04 </wgt>
<wgt id='1628'> +7.4147212e+04 </wgt>
<wgt id='1629'> +7.3093731e+04 </wgt>
<wgt id='1630'> +7.4089243e+04 </wgt>
<wgt id='1631'> +7.2306538e+04 </wgt>
<wgt id='1632'> +7.2495343e+04 </wgt>
<wgt id='1633'> +7.4042049e+04 </wgt>
<wgt id='1634'> +7.4479676e+04 </wgt>
<wgt id='1635'> +7.2474900e+04 </wgt>
<wgt id='1636'> +7.3247708e+04 </wgt>
<wgt id='1637'> +7.3973264e+04 </wgt>
<wgt id='1638'> +7.2673155e+04 </wgt>
<wgt id='1639'> +7.3772829e+04 </wgt>
<wgt id='1640'> +7.5513310e+04 </wgt>
<wgt id='1641'> +7.1809552e+04 </wgt>
<wgt id='1642'> +7.3268665e+04 </wgt>
<wgt id='1643'> +7.3227756e+04 </wgt>
<wgt id='1644'> +7.3919982e+04 </wgt>
<wgt id='1645'> +7.2184895e+04 </wgt>
<wgt id='1646'> +7.3170386e+04 </wgt>
<wgt id='1647'> +7.4111843e+04 </wgt>
<wgt id='1648'> +7.3564707e+04 </wgt>
<wgt id='1649'> +7.3467149e+04 </wgt>
<wgt id='1650'> +7.4197454e+04 </wgt>
<wgt id='1651'> +7.2544611e+04 </wgt>
<wgt id='1652'> +7.2943582e+04 </wgt>
<wgt id='1653'> +7.3206489e+04 </wgt>
<wgt id='1654'> +7.3790834e+04 </wgt>
<wgt id='1655'> +7.4117727e+04 </wgt>
<wgt id='1656'> +7.5604570e+04 </wgt>
<wgt id='1657'> +7.5533501e+04 </wgt>
<wgt id='1658'> +7.5374062e+04 </wgt>
<wgt id='1659'> +7.5942708e+04 </wgt>
<wgt id='1660'> +7.5476956e+04 </wgt>
<wgt id='1661'> +7.6343480e+04 </wgt>
<wgt id='1662'> +7.4418281e+04 </wgt>
<wgt id='1663'> +7.5067729e+04 </wgt>
<wgt id='1664'> +7.4994034e+04 </wgt>
<wgt id='1665'> +7.4843646e+04 </wgt>
<wgt id='1666'> +7.5527572e+04 </wgt>
<wgt id='1667'> +7.4285944e+04 </wgt>
<wgt id='1668'> +7.6565623e+04 </wgt>
<wgt id='1669'> +7.6298598e+04 </wgt>
<wgt id='1670'> +7.4318973e+04 </wgt>
<wgt id='1671'> +7.5449653e+04 </wgt>
<wgt id='1672'> +7.6065594e+04 </wgt>
<wgt id='1673'> +7.6207999e+04 </wgt>
<wgt id='1674'> +7.5192625e+04 </wgt>
<wgt id='1675'> +7.6478243e+04 </wgt>
<wgt id='1676'> +7.4597345e+04 </wgt>
<wgt id='1677'> +7.4312446e+04 </wgt>
<wgt id='1678'> +7.6707979e+04 </wgt>
<wgt id='1679'> +7.5353235e+04 </wgt>
<wgt id='1680'> +7.6578875e+04 </wgt>
<wgt id='1681'> +7.5433379e+04 </wgt>
<wgt id='1682'> +7.5187122e+04 </wgt>
<wgt id='1683'> +7.5720154e+04 </wgt>
<wgt id='1684'> +7.5442402e+04 </wgt>
<wgt id='1685'> +7.6396507e+04 </wgt>
<wgt id='1686'> +7.4585026e+04 </wgt>
<wgt id='1687'> +7.6027282e+04 </wgt>
<wgt id='1688'> +7.4790563e+04 </wgt>
<wgt id='1689'> +7.5533869e+04 </wgt>
<wgt id='1690'> +7.5960265e+04 </wgt>
<wgt id='1691'> +7.5670269e+04 </wgt>
<wgt id='1692'> +7.5132350e+04 </wgt>
<wgt id='1693'> +7.6709442e+04 </wgt>
<wgt id='1694'> +7.4986571e+04 </wgt>
<wgt id='1695'> +7.5455028e+04 </wgt>
<wgt id='1696'> +7.5444588e+04 </wgt>
<wgt id='1697'> +7.6248545e+04 </wgt>
<wgt id='1698'> +7.5126583e+04 </wgt>
<wgt id='1699'> +7.4269726e+04 </wgt>
<wgt id='1700'> +7.7135976e+04 </wgt>
<wgt id='1701'> +7.5410049e+04 </wgt>
<wgt id='1702'> +7.5944040e+04 </wgt>
<wgt id='1703'> +7.5881363e+04 </wgt>
<wgt id='1704'> +7.5697149e+04 </wgt>
<wgt id='1705'> +7.4768038e+04 </wgt>
<wgt id='1706'> +7.6144458e+04 </wgt>
<wgt id='1707'> +7.4474094e+04 </wgt>
<wgt id='1708'> +7.6415892e+04 </wgt>
<wgt id='1709'> +7.5200913e+04 </wgt>
<wgt id='1710'> +7.6166963e+04 </wgt>
<wgt id='1711'> +7.4500027e+04 </wgt>
<wgt id='1712'> +7.6134967e+04 </wgt>
<wgt id='1713'> +7.5902768e+04 </wgt>
<wgt id='1714'> +7.5150468e+04 </wgt>
<wgt id='1715'> +7.2630076e+04 </wgt>
<wgt id='1716'> +7.5121046e+04 </wgt>
<wgt id='1717'> +7.0666500e+04 </wgt>
<wgt id='1718'> +7.0618045e+04 </wgt>
<wgt id='1719'> +7.0726712e+04 </wgt>
<wgt id='1720'> +7.0597187e+04 </wgt>
<wgt id='1721'> +7.0729849e+04 </wgt>
<wgt id='1722'> +7.0570995e+04 </wgt>
<wgt id='1723'> +7.0823077e+04 </wgt>
<wgt id='1724'> +7.0992403e+04 </wgt>
<wgt id='1725'> +7.0401922e+04 </wgt>
<wgt id='1726'> +7.0557488e+04 </wgt>
<wgt id='1727'> +7.0778662e+04 </wgt>
<wgt id='1728'> +6.9815999e+04 </wgt>
<wgt id='1729'> +7.1494198e+04 </wgt>
<wgt id='1730'> +7.0843833e+04 </wgt>
<wgt id='1731'> +7.0540149e+04 </wgt>
<wgt id='1732'> +7.1108970e+04 </wgt>
<wgt id='1733'> +7.1108970e+04 </wgt>
<wgt id='1734'> +7.0489385e+04 </wgt>
<wgt id='1735'> +7.0782429e+04 </wgt>
<wgt id='1736'> +7.0727846e+04 </wgt>
<wgt id='1737'> +7.0585285e+04 </wgt>
<wgt id='1738'> +7.1019854e+04 </wgt>
<wgt id='1739'> +7.0034750e+04 </wgt>
<wgt id='1740'> +7.0568491e+04 </wgt>
<wgt id='1741'> +7.0899917e+04 </wgt>
<wgt id='1742'> +7.0861529e+04 </wgt>
<wgt id='1743'> +7.0436818e+04 </wgt>
<wgt id='1744'> +7.0496005e+04 </wgt>
<wgt id='1745'> +7.1134338e+04 </wgt>
<wgt id='1746'> +7.0180760e+04 </wgt>
<wgt id='1747'> +7.0918962e+04 </wgt>
<wgt id='1748'> +7.0818798e+04 </wgt>
<wgt id='1749'> +7.0112687e+04 </wgt>
<wgt id='1750'> +7.0638406e+04 </wgt>
<wgt id='1751'> +7.0695599e+04 </wgt>
<wgt id='1752'> +7.0598076e+04 </wgt>
<wgt id='1753'> +7.0747514e+04 </wgt>
<wgt id='1754'> +7.0736924e+04 </wgt>
<wgt id='1755'> +7.0618554e+04 </wgt>
<wgt id='1756'> +7.0313349e+04 </wgt>
<wgt id='1757'> +7.1557513e+04 </wgt>
<wgt id='1758'> +7.0990972e+04 </wgt>
<wgt id='1759'> +7.0212032e+04 </wgt>
<wgt id='1760'> +7.1096289e+04 </wgt>
<wgt id='1761'> +7.0322748e+04 </wgt>
<wgt id='1762'> +7.0686588e+04 </wgt>
<wgt id='1763'> +7.0398648e+04 </wgt>
<wgt id='1764'> +7.0504295e+04 </wgt>
<wgt id='1765'> +7.1439842e+04 </wgt>
<wgt id='1766'> +7.0573380e+04 </wgt>
<wgt id='1767'> +7.0862434e+04 </wgt>
<wgt id='1768'> +7.0478130e+04 </wgt>
<wgt id='1769'> +7.0859780e+04 </wgt>
<wgt id='1770'> +7.0497858e+04 </wgt>
<wgt id='1771'> +7.0853283e+04 </wgt>
<wgt id='1772'> +7.1131785e+04 </wgt>
<wgt id='1773'> +7.0251863e+04 </wgt>
<wgt id='1774'> +7.0409702e+04 </wgt>
<wgt id='1775'> +7.0821945e+04 </wgt>
<wgt id='1776'> +7.0727243e+04 </wgt>
<wgt id='1777'> +7.0659587e+04 </wgt>
<wgt id='1778'> +7.0412097e+04 </wgt>
<wgt id='1779'> +7.0689765e+04 </wgt>
<wgt id='1780'> +7.1158406e+04 </wgt>
<wgt id='1781'> +7.0907805e+04 </wgt>
<wgt id='1782'> +7.0666500e+04 </wgt>
<wgt id='1783'> +7.0642717e+04 </wgt>
<wgt id='1784'> +7.2684768e+04 </wgt>
<wgt id='1785'> +7.2991455e+04 </wgt>
<wgt id='1786'> +7.1401295e+04 </wgt>
<wgt id='1787'> +7.2840444e+04 </wgt>
<wgt id='1788'> +7.2557032e+04 </wgt>
<wgt id='1789'> +7.2794328e+04 </wgt>
<wgt id='1790'> +7.2898130e+04 </wgt>
<wgt id='1791'> +7.2978873e+04 </wgt>
<wgt id='1792'> +7.2141721e+04 </wgt>
<wgt id='1793'> +7.3059701e+04 </wgt>
<wgt id='1794'> +7.2968764e+04 </wgt>
<wgt id='1795'> +7.2185580e+04 </wgt>
<wgt id='1796'> +7.2798870e+04 </wgt>
<wgt id='1797'> +7.2628776e+04 </wgt>
<wgt id='1798'> +7.2959311e+04 </wgt>
<wgt id='1799'> +7.3414239e+04 </wgt>
<wgt id='1800'> +7.2917151e+04 </wgt>
<wgt id='1801'> +7.3624309e+04 </wgt>
<wgt id='1802'> +7.3911955e+04 </wgt>
<wgt id='1803'> +7.2820520e+04 </wgt>
<wgt id='1804'> +7.2517098e+04 </wgt>
<wgt id='1805'> +7.2753116e+04 </wgt>
<wgt id='1806'> +7.2638220e+04 </wgt>
<wgt id='1807'> +7.2707448e+04 </wgt>
<wgt id='1808'> +7.2706726e+04 </wgt>
<wgt id='1809'> +7.2747844e+04 </wgt>
<wgt id='1810'> +7.2625113e+04 </wgt>
<wgt id='1811'> +7.2602461e+04 </wgt>
<wgt id='1812'> +7.2748308e+04 </wgt>
<wgt id='1813'> +7.2546617e+04 </wgt>
<wgt id='1814'> +7.2756244e+04 </wgt>
<wgt id='1815'> +7.2635322e+04 </wgt>
<wgt id='1816'> +7.2724457e+04 </wgt>
<wgt id='1817'> +7.2523890e+04 </wgt>
<wgt id='1818'> +7.2658695e+04 </wgt>
<wgt id='1819'> +7.2482756e+04 </wgt>
<wgt id='1820'> +7.2646818e+04 </wgt>
<wgt id='1821'> +7.2690203e+04 </wgt>
<wgt id='1822'> +7.2513570e+04 </wgt>
<wgt id='1823'> +7.2647676e+04 </wgt>
<wgt id='1824'> +7.2678417e+04 </wgt>
<wgt id='1825'> +7.2099585e+04 </wgt>
<wgt id='1826'> +7.3554099e+04 </wgt>
<wgt id='1827'> +8.3159416e+04 </wgt>
<wgt id='1828'> +8.3370699e+04 </wgt>
<wgt id='1829'> +8.2981774e+04 </wgt>
<wgt id='1830'> +8.3181440e+04 </wgt>
<wgt id='1831'> +8.3169556e+04 </wgt>
<wgt id='1832'> +8.3284163e+04 </wgt>
<wgt id='1833'> +8.3066729e+04 </wgt>
<wgt id='1834'> +8.2700304e+04 </wgt>
<wgt id='1835'> +8.3631567e+04 </wgt>
<wgt id='1836'> +8.3461212e+04 </wgt>
<wgt id='1837'> +8.2877117e+04 </wgt>
<wgt id='1838'> +8.3126868e+04 </wgt>
<wgt id='1839'> +8.3221892e+04 </wgt>
<wgt id='1840'> +8.2932667e+04 </wgt>
<wgt id='1841'> +8.3426359e+04 </wgt>
<wgt id='1842'> +8.3207975e+04 </wgt>
<wgt id='1843'> +8.3401322e+04 </wgt>
<wgt id='1844'> +8.3095950e+04 </wgt>
<wgt id='1845'> +8.3232727e+04 </wgt>
<wgt id='1846'> +8.3360787e+04 </wgt>
<wgt id='1847'> +8.2978892e+04 </wgt>
<wgt id='1848'> +8.2414126e+04 </wgt>
<wgt id='1849'> +8.3828797e+04 </wgt>
<wgt id='1850'> +8.3197984e+04 </wgt>
<wgt id='1851'> +8.3175016e+04 </wgt>
<wgt id='1852'> +8.2990539e+04 </wgt>
<wgt id='1853'> +8.3189854e+04 </wgt>
<wgt id='1854'> +8.3003332e+04 </wgt>
<wgt id='1855'> +8.3266991e+04 </wgt>
<wgt id='1856'> +7.2000337e+04 </wgt>
<wgt id='1857'> +7.1984100e+04 </wgt>
<wgt id='1858'> +7.1968222e+04 </wgt>
<wgt id='1859'> +7.2053385e+04 </wgt>
<wgt id='1860'> +7.2002525e+04 </wgt>
<wgt id='1861'> +7.2111525e+04 </wgt>
<wgt id='1862'> +7.1680612e+04 </wgt>
<wgt id='1863'> +7.2004641e+04 </wgt>
<wgt id='1864'> +7.1835428e+04 </wgt>
<wgt id='1865'> +7.1817045e+04 </wgt>
<wgt id='1866'> +7.2267933e+04 </wgt>
<wgt id='1867'> +7.1941615e+04 </wgt>
<wgt id='1868'> +7.1975691e+04 </wgt>
<wgt id='1869'> +7.2102988e+04 </wgt>
<wgt id='1870'> +7.1844703e+04 </wgt>
<wgt id='1871'> +7.2104267e+04 </wgt>
<wgt id='1872'> +7.2014345e+04 </wgt>
<wgt id='1873'> +7.1966147e+04 </wgt>
<wgt id='1874'> +7.2058159e+04 </wgt>
<wgt id='1875'> +7.1976618e+04 </wgt>
<wgt id='1876'> +7.1704277e+04 </wgt>
<wgt id='1877'> +7.1916200e+04 </wgt>
<wgt id='1878'> +7.1853478e+04 </wgt>
<wgt id='1879'> +7.2113381e+04 </wgt>
<wgt id='1880'> +7.2178889e+04 </wgt>
<wgt id='1881'> +7.2292174e+04 </wgt>
<wgt id='1882'> +7.1858399e+04 </wgt>
<wgt id='1883'> +7.2017436e+04 </wgt>
<wgt id='1884'> +7.1776352e+04 </wgt>
<wgt id='1885'> +7.1561936e+04 </wgt>
<wgt id='1886'> +7.2603838e+04 </wgt>
<wgt id='1887'> +7.5399211e+04 </wgt>
<wgt id='1888'> +6.2646206e+04 </wgt>
<wgt id='1889'> +7.3814087e+04 </wgt>
</rwgt>
</event>
<event npLO=" -1 " npNLO=" 0 ">
 5      0 +7.4519530e+04 2.71824260e+01 7.55820760e-03 1.20062120e-01
       -1 -1    0    0    0  501 +0.0000000000e+00 +0.0000000000e+00 +4.1875381445e+02 4.1875381445e+02 0.0000000000e+00 0.0000e+00 1.0000e+00
        2 -1    0    0  501    0 +0.0000000000e+00 +0.0000000000e+00 -3.9191366362e+00 3.9191366362e+00 0.0000000000e+00 0.0000e+00 -1.0000e+00
       24  2    1    2    0    0 +0.0000000000e+00 +0.0000000000e+00 +4.1483467781e+02 4.2267295108e+02 8.1022303491e+01 0.0000e+00 0.0000e+00
      -15  1    3    3    0    0 -1.3866045715e+01 +6.0871240024e+00 +4.0342351714e+02 4.0371154580e+02 1.7770000000e+00 0.0000e+00 1.0000e+00
       16  1    3    3    0    0 +1.3866045715e+01 -6.0871240024e+00 +1.1411160669e+01 1.8961405280e+01 0.0000000000e+00 0.0000e+00 -1.0000e+00
#aMCatNLO 1  0  0  1  2 0.82309920E+01 0.00000000E+00 -9  5  0 0.00000000E+00 0.00000000E+00 0.00000000E+00 0.00000000E+00 0.00000000E+00
<rwgt>
<wgt id='1001'> +7.4519530e+04 </wgt>
<wgt id='1002'> +7.1789783e+04 </wgt>
<wgt id='1003'> +7.7917163e+04 </wgt>
<wgt id='1004'> +9.6429474e+04 </wgt>
<wgt id='1005'> +9.2025770e+04 </wgt>
<wgt id='1006'> +1.0191209e+05 </wgt>
<wgt id='1007'> +5.5748294e+04 </wgt>
<wgt id='1008'> +5.4340951e+04 </wgt>
<wgt id='1009'> +5.7498882e+04 </wgt>
<wgt id='1010'> +7.4519530e+04 </wgt>
<wgt id='1011'> +7.4460936e+04 </wgt>
<wgt id='1012'> +7.4567885e+04 </wgt>
<wgt id='1013'> +7.4416067e+04 </wgt>
<wgt id='1014'> +7.5046051e+04 </wgt>
<wgt id='1015'> +7.3412352e+04 </wgt>
<wgt id='1016'> +7.4575034e+04 </wgt>
<wgt id='1017'> +7.4513903e+04 </wgt>
<wgt id='1018'> +7.3716113e+04 </wgt>
<wgt id='1019'> +7.5563856e+04 </wgt>
<wgt id='1020'> +7.4366848e+04 </wgt>
<wgt id='1021'> +7.5033466e+04 </wgt>
<wgt id='1022'> +7.4539944e+04 </wgt>
<wgt id='1023'> +7.5075379e+04 </wgt>
<wgt id='1024'> +7.4032691e+04 </wgt>
<wgt id='1025'> +7.5468207e+04 </wgt>
<wgt id='1026'> +7.4352604e+04 </wgt>
<wgt id='1027'> +7.4157513e+04 </wgt>
<wgt id='1028'> +7.3791474e+04 </wgt>
<wgt id='1029'> +7.4506860e+04 </wgt>
<wgt id='1030'> +7.4126465e+04 </wgt>
<wgt id='1031'> +7.4070956e+04 </wgt>
<wgt id='1032'> +7.4794217e+04 </wgt>
<wgt id='1033'> +7.4300437e+04 </wgt>
<wgt id='1034'> +7.3540165e+04 </wgt>
<wgt id='1035'> +7.4454306e+04 </wgt>
<wgt id='1036'> +7.4519721e+04 </wgt>
<wgt id='1037'> +7.5307587e+04 </wgt>
<wgt id='1038'> +7.3861048e+04 </wgt>
<wgt id='1039'> +7.5896382e+04 </wgt>
<wgt id='1040'> +7.5107556e+04 </wgt>
<wgt id='1041'> +7.5254176e+04 </wgt>
<wgt id='1042'> +7.4100773e+04 </wgt>
<wgt id='1043'> +7.4559216e+04 </wgt>
<wgt id='1044'> +7.4731793e+04 </wgt>
<wgt id='1045'> +7.4446950e+04 </wgt>
<wgt id='1046'> +7.4773596e+04 </wgt>
<wgt id='1047'> +7.4687338e+04 </wgt>
<wgt id='1048'> +7.4996882e+04 </wgt>
<wgt id='1049'> +7.4362911e+04 </wgt>
<wgt id='1050'> +7.4336246e+04 </wgt>
<wgt id='1051'> +7.3855928e+04 </wgt>
<wgt id='1052'> +7.4069152e+04 </wgt>
<wgt id='1053'> +7.4489603e+04 </wgt>
<wgt id='1054'> +7.4582927e+04 </wgt>
<wgt id='1055'> +7.5014021e+04 </wgt>
<wgt id='1056'> +7.4798393e+04 </wgt>
<wgt id='1057'> +7.4642719e+04 </wgt>
<wgt id='1058'> +7.4896708e+04 </wgt>
<wgt id='1059'> +7.4141305e+04 </wgt>
<wgt id='1060'> +7.4736247e+04 </wgt>
<wgt id='1061'> +7.5065159e+04 </wgt>
<wgt id='1062'> +7.4268482e+04 </wgt>
<wgt id='1063'> +7.4417447e+04 </wgt>
<wgt id='1064'> +7.4257675e+04 </wgt>
<wgt id='1065'> +7.4864984e+04 </wgt>
<wgt id='1066'> +7.4779993e+04 </wgt>
<wgt id='1067'> +7.4298990e+04 </wgt>
<wgt id='1068'> +7.4404809e+04 </wgt>
<wgt id='1069'> +7.4337216e+04 </wgt>
<wgt id='1070'> +7.4924319e+04 </wgt>
<wgt id='1071'> +7.4651146e+04 </wgt>
<wgt id='1072'> +7.4545583e+04 </wgt>
<wgt id='1073'> +7.4713781e+04 </wgt>
<wgt id='1074'> +7.4567345e+04 </wgt>
<wgt id='1075'> +7.4295779e+04 </wgt>
<wgt id='1076'> +7.4983746e+04 </wgt>
<wgt id='1077'> +7.4927809e+04 </wgt>
<wgt id='1078'> +7.4326866e+04 </wgt>
<wgt id='1079'> +7.4205872e+04 </wgt>
<wgt id='1080'> +7.4620163e+04 </wgt>
<wgt id='1081'> +7.4473419e+04 </wgt>
<wgt id='1082'> +7.4176577e+04 </wgt>
<wgt id='1083'> +7.4717504e+04 </wgt>
<wgt id='1084'> +7.4399370e+04 </wgt>
<wgt id='1085'> +7.4472475e+04 </wgt>
<wgt id='1086'> +7.4486961e+04 </wgt>
<wgt id='1087'> +7.4504232e+04 </wgt>
<wgt id='1088'> +7.4521372e+04 </wgt>
<wgt id='1089'> +7.4226538e+04 </wgt>
<wgt id='1090'> +7.4468068e+04 </wgt>
<wgt id='1091'> +7.4461592e+04 </wgt>
<wgt id='1092'> +7.4790195e+04 </wgt>
<wgt id='1093'> +7.4434155e+04 </wgt>
<wgt id='1094'> +7.4557290e+04 </wgt>
<wgt id='1095'> +7.4393199e+04 </wgt>
<wgt id='1096'> +7.4545315e+04 </wgt>
<wgt id='1097'> +7.4832332e+04 </wgt>
<wgt id='1098'> +7.4683330e+04 </wgt>
<wgt id='1099'> +7.4414209e+04 </wgt>
<wgt id='1100'> +7.4578856e+04 </wgt>
<wgt id='1101'> +7.4645574e+04 </wgt>
<wgt id='1102'> +7.4375012e+04 </wgt>
<wgt id='1103'> +7.4354564e+04 </wgt>
<wgt id='1104'> +7.4345776e+04 </wgt>
<wgt id='1105'> +7.4442552e+04 </wgt>
<wgt id='1106'> +7.4367729e+04 </wgt>
<wgt id='1107'> +7.4436023e+04 </wgt>
<wgt id='1108'> +7.4522042e+04 </wgt>
<wgt id='1109'> +7.4524096e+04 </wgt>
<wgt id='1110'> +7.4519532e+04 </wgt>
<wgt id='1111'> +7.4797073e+04 </wgt>
<wgt id='1112'> +7.5725257e+04 </wgt>
<wgt id='1113'> +7.4519532e+04 </wgt>
<wgt id='1114'> +8.5139589e+04 </wgt>
<wgt id='1115'> +7.3488882e+04 </wgt>
<wgt id='1116'> +8.0453028e+04 </wgt>
<wgt id='1117'> +7.8156147e+04 </wgt>
<wgt id='1118'> +7.0774436e+04 </wgt>
<wgt id='1119'> +7.3758342e+04 </wgt>
<wgt id='1120'> +7.0786336e+04 </wgt>
<wgt id='1121'> +7.3139677e+04 </wgt>
<wgt id='1122'> +7.0382858e+04 </wgt>
<wgt id='1123'> +7.2983893e+04 </wgt>
<wgt id='1124'> +7.5897286e+04 </wgt>
<wgt id='1125'> +7.0815432e+04 </wgt>
<wgt id='1126'> +7.5545742e+04 </wgt>
<wgt id='1127'> +7.5234783e+04 </wgt>
<wgt id='1128'> +7.2098156e+04 </wgt>
<wgt id='1129'> +7.3210129e+04 </wgt>
<wgt id='1130'> +7.8086352e+04 </wgt>
<wgt id='1131'> +7.3869999e+04 </wgt>
<wgt id='1132'> +7.7605218e+04 </wgt>
<wgt id='1133'> +7.1445359e+04 </wgt>
<wgt id='1134'> +7.5791489e+04 </wgt>
<wgt id='1135'> +7.9867415e+04 </wgt>
<wgt id='1136'> +7.4350328e+04 </wgt>
<wgt id='1137'> +7.3686944e+04 </wgt>
<wgt id='1138'> +7.0550336e+04 </wgt>
<wgt id='1139'> +7.6664831e+04 </wgt>
<wgt id='1140'> +8.7000435e+04 </wgt>
<wgt id='1141'> +7.5334500e+04 </wgt>
<wgt id='1142'> +7.1755005e+04 </wgt>
<wgt id='1143'> +7.3254940e+04 </wgt>
<wgt id='1144'> +8.0036162e+04 </wgt>
<wgt id='1145'> +7.2932086e+04 </wgt>
<wgt id='1146'> +8.1354824e+04 </wgt>
<wgt id='1147'> +7.2776268e+04 </wgt>
<wgt id='1148'> +7.8169693e+04 </wgt>
<wgt id='1149'> +7.3799472e+04 </wgt>
<wgt id='1150'> +7.4720864e+04 </wgt>
<wgt id='1151'> +7.4103351e+04 </wgt>
<wgt id='1152'> +7.2771131e+04 </wgt>
<wgt id='1153'> +7.6888086e+04 </wgt>
<wgt id='1154'> +7.8112642e+04 </wgt>
<wgt id='1155'> +7.4744340e+04 </wgt>
<wgt id='1156'> +8.1807603e+04 </wgt>
<wgt id='1157'> +7.4897439e+04 </wgt>
<wgt id='1158'> +7.3085908e+04 </wgt>
<wgt id='1159'> +7.3726236e+04 </wgt>
<wgt id='1160'> +7.4571093e+04 </wgt>
<wgt id='1161'> +7.7809943e+04 </wgt>
<wgt id='1162'> +7.3581502e+04 </wgt>
<wgt id='1163'> +7.4425394e+04 </wgt>
<wgt id='1164'> +7.4005174e+04 </wgt>
<wgt id='1165'> +6.9905090e+04 </wgt>
<wgt id='1166'> +7.5637547e+04 </wgt>
<wgt id='1167'> +7.7688013e+04 </wgt>
<wgt id='1168'> +8.1300314e+04 </wgt>
<wgt id='1169'> +7.3500644e+04 </wgt>
<wgt id='1170'> +7.3559958e+04 </wgt>
<wgt id='1171'> +7.4468874e+04 </wgt>
<wgt id='1172'> +7.0177317e+04 </wgt>
<wgt id='1173'> +7.5987864e+04 </wgt>
<wgt id='1174'> +7.4482445e+04 </wgt>
<wgt id='1175'> +7.3452277e+04 </wgt>
<wgt id='1176'> +7.8535989e+04 </wgt>
<wgt id='1177'> +7.7215497e+04 </wgt>
<wgt id='1178'> +7.6906934e+04 </wgt>
<wgt id='1179'> +6.7220200e+04 </wgt>
<wgt id='1180'> +7.7957900e+04 </wgt>
<wgt id='1181'> +7.4115852e+04 </wgt>
<wgt id='1182'> +6.9625424e+04 </wgt>
<wgt id='1183'> +7.4198332e+04 </wgt>
<wgt id='1184'> +7.3942208e+04 </wgt>
<wgt id='1185'> +7.2186193e+04 </wgt>
<wgt id='1186'> +6.5245038e+04 </wgt>
<wgt id='1187'> +7.2729652e+04 </wgt>
<wgt id='1188'> +6.8916800e+04 </wgt>
<wgt id='1189'> +8.0398183e+04 </wgt>
<wgt id='1190'> +7.4026179e+04 </wgt>
<wgt id='1191'> +7.2752460e+04 </wgt>
<wgt id='1192'> +7.2228976e+04 </wgt>
<wgt id='1193'> +8.1223625e+04 </wgt>
<wgt id='1194'> +7.7375055e+04 </wgt>
<wgt id='1195'> +7.3210129e+04 </wgt>
<wgt id='1196'> +7.4676917e+04 </wgt>
<wgt id='1197'> +7.3707574e+04 </wgt>
<wgt id='1198'> +7.1728750e+04 </wgt>
<wgt id='1199'> +7.6417687e+04 </wgt>
<wgt id='1200'> +7.1387843e+04 </wgt>
<wgt id='1201'> +7.9502264e+04 </wgt>
<wgt id='1202'> +6.1767357e+04 </wgt>
<wgt id='1203'> +7.0979748e+04 </wgt>
<wgt id='1204'> +7.4042113e+04 </wgt>
<wgt id='1205'> +6.3927587e+04 </wgt>
<wgt id='1206'> +7.1600657e+04 </wgt>
<wgt id='1207'> +7.1982630e+04 </wgt>
<wgt id='1208'> +7.4074065e+04 </wgt>
<wgt id='1209'> +7.4495845e+04 </wgt>
<wgt id='1210'> +7.9385808e+04 </wgt>
<wgt id='1211'> +7.6342235e+04 </wgt>
<wgt id='1212'> +7.3576402e+04 </wgt>
<wgt id='1213'> +7.4089314e+04 </wgt>
<wgt id='1214'> +7.5082595e+04 </wgt>
<wgt id='1215'> +7.2968573e+04 </wgt>
<wgt id='1216'> +7.2989876e+04 </wgt>
<wgt id='1217'> +7.2942031e+04 </wgt>
<wgt id='1218'> +7.4059460e+04 </wgt>
<wgt id='1219'> +7.3888006e+04 </wgt>
<wgt id='1220'> +7.5827328e+04 </wgt>
<wgt id='1221'> +7.6130583e+04 </wgt>
<wgt id='1222'> +7.7289668e+04 </wgt>
<wgt id='1223'> +7.5000425e+04 </wgt>
<wgt id='1224'> +7.4863301e+04 </wgt>
<wgt id='1225'> +7.5056709e+04 </wgt>
<wgt id='1226'> +7.4826563e+04 </wgt>
<wgt id='1227'> +7.5845526e+04 </wgt>
<wgt id='1228'> +7.4648298e+04 </wgt>
<wgt id='1229'> +7.4788639e+04 </wgt>
<wgt id='1230'> +7.4573752e+04 </wgt>
<wgt id='1231'> +7.4339732e+04 </wgt>
<wgt id='1232'> +7.4890881e+04 </wgt>
<wgt id='1233'> +7.4244981e+04 </wgt>
<wgt id='1234'> +7.5102255e+04 </wgt>
<wgt id='1235'> +7.5261655e+04 </wgt>
<wgt id='1236'> +7.4956823e+04 </wgt>
<wgt id='1237'> +7.5603769e+04 </wgt>
<wgt id='1238'> +7.4469857e+04 </wgt>
<wgt id='1239'> +7.4856937e+04 </wgt>
<wgt id='1240'> +7.4906772e+04 </wgt>
<wgt id='1241'> +7.5114843e+04 </wgt>
<wgt id='1242'> +7.5029181e+04 </wgt>
<wgt id='1243'> +7.5056944e+04 </wgt>
<wgt id='1244'> +7.5280681e+04 </wgt>
<wgt id='1245'> +7.5103799e+04 </wgt>
<wgt id='1246'> +7.5462876e+04 </wgt>
<wgt id='1247'> +7.4939885e+04 </wgt>
<wgt id='1248'> +7.4707087e+04 </wgt>
<wgt id='1249'> +7.4716866e+04 </wgt>
<wgt id='1250'> +7.5718883e+04 </wgt>
<wgt id='1251'> +7.4989943e+04 </wgt>
<wgt id='1252'> +7.5292272e+04 </wgt>
<wgt id='1253'> +7.5263052e+04 </wgt>
<wgt id='1254'> +7.5608438e+04 </wgt>
<wgt id='1255'> +7.4086332e+04 </wgt>
<wgt id='1256'> +7.5222317e+04 </wgt>
<wgt id='1257'> +7.5095964e+04 </wgt>
<wgt id='1258'> +7.4215734e+04 </wgt>
<wgt id='1259'> +7.4044035e+04 </wgt>
<wgt id='1260'> +7.4961241e+04 </wgt>
<wgt id='1261'> +7.4246931e+04 </wgt>
<wgt id='1262'> +7.4744088e+04 </wgt>
<wgt id='1263'> +7.4799500e+04 </wgt>
<wgt id='1264'> +7.4295353e+04 </wgt>
<wgt id='1265'> +7.4992416e+04 </wgt>
<wgt id='1266'> +7.5784901e+04 </wgt>
<wgt id='1267'> +7.4504358e+04 </wgt>
<wgt id='1268'> +7.4891054e+04 </wgt>
<wgt id='1269'> +7.4624210e+04 </wgt>
<wgt id='1270'> +7.5254368e+04 </wgt>
<wgt id='1271'> +7.5192689e+04 </wgt>
<wgt id='1272'> +7.4902964e+04 </wgt>
<wgt id='1273'> +7.5513684e+04 </wgt>
<wgt id='1274'> +7.5368616e+04 </wgt>
<wgt id='1275'> +7.5019300e+04 </wgt>
<wgt id='1276'> +7.4938054e+04 </wgt>
<wgt id='1277'> +7.5220288e+04 </wgt>
<wgt id='1278'> +7.5014623e+04 </wgt>
<wgt id='1279'> +7.4856892e+04 </wgt>
<wgt id='1280'> +7.4637242e+04 </wgt>
<wgt id='1281'> +7.4481558e+04 </wgt>
<wgt id='1282'> +7.5166543e+04 </wgt>
<wgt id='1283'> +7.5213882e+04 </wgt>
<wgt id='1284'> +7.5233626e+04 </wgt>
<wgt id='1285'> +7.5118667e+04 </wgt>
<wgt id='1286'> +7.5191642e+04 </wgt>
<wgt id='1287'> +7.5005134e+04 </wgt>
<wgt id='1288'> +7.4993520e+04 </wgt>
<wgt id='1289'> +7.4986587e+04 </wgt>
<wgt id='1290'> +7.5201565e+04 </wgt>
<wgt id='1291'> +7.5099095e+04 </wgt>
<wgt id='1292'> +7.4872463e+04 </wgt>
<wgt id='1293'> +7.5256226e+04 </wgt>
<wgt id='1294'> +7.4995536e+04 </wgt>
<wgt id='1295'> +7.5243371e+04 </wgt>
<wgt id='1296'> +7.4845475e+04 </wgt>
<wgt id='1297'> +7.4834096e+04 </wgt>
<wgt id='1298'> +7.4952173e+04 </wgt>
<wgt id='1299'> +7.4811334e+04 </wgt>
<wgt id='1300'> +7.5114667e+04 </wgt>
<wgt id='1301'> +7.5216163e+04 </wgt>
<wgt id='1302'> +7.4996997e+04 </wgt>
<wgt id='1303'> +7.4822079e+04 </wgt>
<wgt id='1304'> +7.5128510e+04 </wgt>
<wgt id='1305'> +7.5200181e+04 </wgt>
<wgt id='1306'> +7.5011926e+04 </wgt>
<wgt id='1307'> +7.5032900e+04 </wgt>
<wgt id='1308'> +7.5028920e+04 </wgt>
<wgt id='1309'> +7.4917653e+04 </wgt>
<wgt id='1310'> +7.4926407e+04 </wgt>
<wgt id='1311'> +7.5003448e+04 </wgt>
<wgt id='1312'> +7.5372174e+04 </wgt>
<wgt id='1313'> +7.5120510e+04 </wgt>
<wgt id='1314'> +7.4973430e+04 </wgt>
<wgt id='1315'> +7.4935532e+04 </wgt>
<wgt id='1316'> +7.4969419e+04 </wgt>
<wgt id='1317'> +7.5140355e+04 </wgt>
<wgt id='1318'> +7.5010456e+04 </wgt>
<wgt id='1319'> +7.5074013e+04 </wgt>
<wgt id='1320'> +7.4974020e+04 </wgt>
<wgt id='1321'> +7.5064032e+04 </wgt>
<wgt id='1322'> +7.5191604e+04 </wgt>
<wgt id='1323'> +7.5164807e+04 </wgt>
<wgt id='1324'> +7.5050810e+04 </wgt>
<wgt id='1325'> +7.5895335e+04 </wgt>
<wgt id='1326'> +7.0368558e+04 </wgt>
<wgt id='1327'> +6.8873856e+04 </wgt>
<wgt id='1328'> +7.5832533e+04 </wgt>
<wgt id='1329'> +7.6070453e+04 </wgt>
<wgt id='1330'> +7.7526384e+04 </wgt>
<wgt id='1331'> +7.3481667e+04 </wgt>
<wgt id='1332'> +8.0900195e+04 </wgt>
<wgt id='1333'> +8.0453427e+04 </wgt>
<wgt id='1334'> +7.6181879e+04 </wgt>
<wgt id='1335'> +7.7282813e+04 </wgt>
<wgt id='1336'> +7.9528119e+04 </wgt>
<wgt id='1337'> +7.5846010e+04 </wgt>
<wgt id='1338'> +7.1733444e+04 </wgt>
<wgt id='1339'> +7.1875628e+04 </wgt>
<wgt id='1340'> +7.9016708e+04 </wgt>
<wgt id='1341'> +7.5956085e+04 </wgt>
<wgt id='1342'> +7.7687756e+04 </wgt>
<wgt id='1343'> +7.6014418e+04 </wgt>
<wgt id='1344'> +7.9288913e+04 </wgt>
<wgt id='1345'> +7.1077915e+04 </wgt>
<wgt id='1346'> +7.4164977e+04 </wgt>
<wgt id='1347'> +7.4689813e+04 </wgt>
<wgt id='1348'> +7.8225121e+04 </wgt>
<wgt id='1349'> +7.5182579e+04 </wgt>
<wgt id='1350'> +7.6469656e+04 </wgt>
<wgt id='1351'> +7.4292303e+04 </wgt>
<wgt id='1352'> +7.2110747e+04 </wgt>
<wgt id='1353'> +7.6879914e+04 </wgt>
<wgt id='1354'> +7.2497836e+04 </wgt>
<wgt id='1355'> +7.7057634e+04 </wgt>
<wgt id='1356'> +7.7598062e+04 </wgt>
<wgt id='1357'> +7.5414235e+04 </wgt>
<wgt id='1358'> +7.3786290e+04 </wgt>
<wgt id='1359'> +7.4679312e+04 </wgt>
<wgt id='1360'> +7.4879014e+04 </wgt>
<wgt id='1361'> +7.8213403e+04 </wgt>
<wgt id='1362'> +7.1797608e+04 </wgt>
<wgt id='1363'> +7.5549039e+04 </wgt>
<wgt id='1364'> +7.5334290e+04 </wgt>
<wgt id='1365'> +7.6209159e+04 </wgt>
<wgt id='1366'> +7.8446566e+04 </wgt>
<wgt id='1367'> +7.4632696e+04 </wgt>
<wgt id='1368'> +7.3023435e+04 </wgt>
<wgt id='1369'> +8.0094728e+04 </wgt>
<wgt id='1370'> +7.4881836e+04 </wgt>
<wgt id='1371'> +7.7696292e+04 </wgt>
<wgt id='1372'> +7.7559298e+04 </wgt>
<wgt id='1373'> +7.3855749e+04 </wgt>
<wgt id='1374'> +7.6459869e+04 </wgt>
<wgt id='1375'> +7.5021935e+04 </wgt>
<wgt id='1376'> +7.1332518e+04 </wgt>
<wgt id='1377'> +7.5556903e+04 </wgt>
<wgt id='1378'> +7.7464127e+04 </wgt>
<wgt id='1379'> +7.5630649e+04 </wgt>
<wgt id='1380'> +7.8519403e+04 </wgt>
<wgt id='1381'> +7.4496260e+04 </wgt>
<wgt id='1382'> +7.5848272e+04 </wgt>
<wgt id='1383'> +7.4184339e+04 </wgt>
<wgt id='1384'> +7.5453830e+04 </wgt>
<wgt id='1385'> +7.7332984e+04 </wgt>
<wgt id='1386'> +7.6197020e+04 </wgt>
<wgt id='1387'> +7.9515273e+04 </wgt>
<wgt id='1388'> +7.5691773e+04 </wgt>
<wgt id='1389'> +7.7050604e+04 </wgt>
<wgt id='1390'> +7.4694971e+04 </wgt>
<wgt id='1391'> +7.2145763e+04 </wgt>
<wgt id='1392'> +7.2099380e+04 </wgt>
<wgt id='1393'> +7.9144523e+04 </wgt>
<wgt id='1394'> +7.6209159e+04 </wgt>
<wgt id='1395'> +7.4251369e+04 </wgt>
<wgt id='1396'> +7.8560202e+04 </wgt>
<wgt id='1397'> +7.7891418e+04 </wgt>
<wgt id='1398'> +7.3114309e+04 </wgt>
<wgt id='1399'> +7.1475291e+04 </wgt>
<wgt id='1400'> +7.3302685e+04 </wgt>
<wgt id='1401'> +7.3103675e+04 </wgt>
<wgt id='1402'> +7.7022590e+04 </wgt>
<wgt id='1403'> +7.6569155e+04 </wgt>
<wgt id='1404'> +7.4209230e+04 </wgt>
<wgt id='1405'> +8.1637753e+04 </wgt>
<wgt id='1406'> +7.8489296e+04 </wgt>
<wgt id='1407'> +7.3764320e+04 </wgt>
<wgt id='1408'> +7.7847089e+04 </wgt>
<wgt id='1409'> +7.5090047e+04 </wgt>
<wgt id='1410'> +7.6546289e+04 </wgt>
<wgt id='1411'> +7.2497320e+04 </wgt>
<wgt id='1412'> +7.5953659e+04 </wgt>
<wgt id='1413'> +7.6950801e+04 </wgt>
<wgt id='1414'> +7.4660936e+04 </wgt>
<wgt id='1415'> +7.6687600e+04 </wgt>
<wgt id='1416'> +7.5631873e+04 </wgt>
<wgt id='1417'> +7.7851541e+04 </wgt>
<wgt id='1418'> +7.7014899e+04 </wgt>
<wgt id='1419'> +7.5385344e+04 </wgt>
<wgt id='1420'> +7.8186361e+04 </wgt>
<wgt id='1421'> +7.4825329e+04 </wgt>
<wgt id='1422'> +7.4953171e+04 </wgt>
<wgt id='1423'> +7.3988096e+04 </wgt>
<wgt id='1424'> +7.4045577e+04 </wgt>
<wgt id='1425'> +7.9030396e+04 </wgt>
<wgt id='1426'> +7.6049338e+04 </wgt>
<wgt id='1427'> +7.3738131e+04 </wgt>
<wgt id='1428'> +7.7622925e+04 </wgt>
<wgt id='1429'> +7.6851677e+04 </wgt>
<wgt id='1430'> +7.5579414e+04 </wgt>
<wgt id='1431'> +7.5996108e+04 </wgt>
<wgt id='1432'> +7.5700465e+04 </wgt>
<wgt id='1433'> +7.6129250e+04 </wgt>
<wgt id='1434'> +7.6049033e+04 </wgt>
<wgt id='1435'> +7.6344892e+04 </wgt>
<wgt id='1436'> +7.5420705e+04 </wgt>
<wgt id='1437'> +7.6166775e+04 </wgt>
<wgt id='1438'> +7.5778061e+04 </wgt>
<wgt id='1439'> +7.6524991e+04 </wgt>
<wgt id='1440'> +7.5764955e+04 </wgt>
<wgt id='1441'> +7.5722371e+04 </wgt>
<wgt id='1442'> +7.5094839e+04 </wgt>
<wgt id='1443'> +7.5522140e+04 </wgt>
<wgt id='1444'> +7.6616855e+04 </wgt>
<wgt id='1445'> +7.5769334e+04 </wgt>
<wgt id='1446'> +7.6241293e+04 </wgt>
<wgt id='1447'> +7.7019842e+04 </wgt>
<wgt id='1448'> +7.6708478e+04 </wgt>
<wgt id='1449'> +7.5561576e+04 </wgt>
<wgt id='1450'> +7.6647267e+04 </wgt>
<wgt id='1451'> +7.5768493e+04 </wgt>
<wgt id='1452'> +7.6124938e+04 </wgt>
<wgt id='1453'> +7.5585758e+04 </wgt>
<wgt id='1454'> +7.6240250e+04 </wgt>
<wgt id='1455'> +7.6282561e+04 </wgt>
<wgt id='1456'> +7.5995728e+04 </wgt>
<wgt id='1457'> +7.5966408e+04 </wgt>
<wgt id='1458'> +7.5747837e+04 </wgt>
<wgt id='1459'> +7.6411988e+04 </wgt>
<wgt id='1460'> +7.6033578e+04 </wgt>
<wgt id='1461'> +7.6161460e+04 </wgt>
<wgt id='1462'> +7.6007399e+04 </wgt>
<wgt id='1463'> +7.6094131e+04 </wgt>
<wgt id='1464'> +7.5855478e+04 </wgt>
<wgt id='1465'> +7.6137549e+04 </wgt>
<wgt id='1466'> +7.5795826e+04 </wgt>
<wgt id='1467'> +7.6007492e+04 </wgt>
<wgt id='1468'> +7.6102250e+04 </wgt>
<wgt id='1469'> +7.5895380e+04 </wgt>
<wgt id='1470'> +7.5866725e+04 </wgt>
<wgt id='1471'> +7.5877562e+04 </wgt>
<wgt id='1472'> +7.6057123e+04 </wgt>
<wgt id='1473'> +7.6046042e+04 </wgt>
<wgt id='1474'> +7.6032544e+04 </wgt>
<wgt id='1475'> +7.6030696e+04 </wgt>
<wgt id='1476'> +7.5914189e+04 </wgt>
<wgt id='1477'> +7.5982994e+04 </wgt>
<wgt id='1478'> +7.5944622e+04 </wgt>
<wgt id='1479'> +7.5876182e+04 </wgt>
<wgt id='1480'> +7.6032446e+04 </wgt>
<wgt id='1481'> +7.6033818e+04 </wgt>
<wgt id='1482'> +7.6851677e+04 </wgt>
<wgt id='1483'> +7.5579414e+04 </wgt>
<wgt id='1484'> +7.3960214e+04 </wgt>
<wgt id='1485'> +7.1506804e+04 </wgt>
<wgt id='1486'> +7.6669097e+04 </wgt>
<wgt id='1487'> +7.4914907e+04 </wgt>
<wgt id='1488'> +7.2598603e+04 </wgt>
<wgt id='1489'> +6.9637890e+04 </wgt>
<wgt id='1490'> +7.9021109e+04 </wgt>
<wgt id='1491'> +7.5426355e+04 </wgt>
<wgt id='1492'> +7.1586580e+04 </wgt>
<wgt id='1493'> +7.3539359e+04 </wgt>
<wgt id='1494'> +7.5047328e+04 </wgt>
<wgt id='1495'> +7.1879896e+04 </wgt>
<wgt id='1496'> +7.1228453e+04 </wgt>
<wgt id='1497'> +7.2882588e+04 </wgt>
<wgt id='1498'> +7.5180923e+04 </wgt>
<wgt id='1499'> +7.2257456e+04 </wgt>
<wgt id='1500'> +7.7454583e+04 </wgt>
<wgt id='1501'> +7.6044994e+04 </wgt>
<wgt id='1502'> +7.2774908e+04 </wgt>
<wgt id='1503'> +7.2694599e+04 </wgt>
<wgt id='1504'> +7.5774852e+04 </wgt>
<wgt id='1505'> +7.5434878e+04 </wgt>
<wgt id='1506'> +7.4772599e+04 </wgt>
<wgt id='1507'> +7.2325577e+04 </wgt>
<wgt id='1508'> +7.2747145e+04 </wgt>
<wgt id='1509'> +7.5494409e+04 </wgt>
<wgt id='1510'> +7.2477983e+04 </wgt>
<wgt id='1511'> +7.6725127e+04 </wgt>
<wgt id='1512'> +7.5062991e+04 </wgt>
<wgt id='1513'> +7.3206669e+04 </wgt>
<wgt id='1514'> +6.8116792e+04 </wgt>
<wgt id='1515'> +7.5810826e+04 </wgt>
<wgt id='1516'> +7.4629972e+04 </wgt>
<wgt id='1517'> +7.6356171e+04 </wgt>
<wgt id='1518'> +7.3689713e+04 </wgt>
<wgt id='1519'> +7.3590236e+04 </wgt>
<wgt id='1520'> +7.7425404e+04 </wgt>
<wgt id='1521'> +7.6948506e+04 </wgt>
<wgt id='1522'> +7.4768241e+04 </wgt>
<wgt id='1523'> +7.1454768e+04 </wgt>
<wgt id='1524'> +7.5783296e+04 </wgt>
<wgt id='1525'> +7.4619972e+04 </wgt>
<wgt id='1526'> +7.3428020e+04 </wgt>
<wgt id='1527'> +7.6185302e+04 </wgt>
<wgt id='1528'> +7.2932374e+04 </wgt>
<wgt id='1529'> +7.2442798e+04 </wgt>
<wgt id='1530'> +7.2480295e+04 </wgt>
<wgt id='1531'> +7.2235754e+04 </wgt>
<wgt id='1532'> +7.7078383e+04 </wgt>
<wgt id='1533'> +7.7900915e+04 </wgt>
<wgt id='1534'> +7.3086878e+04 </wgt>
<wgt id='1535'> +7.3907362e+04 </wgt>
<wgt id='1536'> +7.6890041e+04 </wgt>
<wgt id='1537'> +7.5669115e+04 </wgt>
<wgt id='1538'> +6.7378509e+04 </wgt>
<wgt id='1539'> +7.0944808e+04 </wgt>
<wgt id='1540'> +7.2597070e+04 </wgt>
<wgt id='1541'> +7.4987772e+04 </wgt>
<wgt id='1542'> +7.3396407e+04 </wgt>
<wgt id='1543'> +7.2072625e+04 </wgt>
<wgt id='1544'> +7.3177893e+04 </wgt>
<wgt id='1545'> +7.6559409e+04 </wgt>
<wgt id='1546'> +7.4952803e+04 </wgt>
<wgt id='1547'> +7.2152583e+04 </wgt>
<wgt id='1548'> +7.4492299e+04 </wgt>
<wgt id='1549'> +7.1806629e+04 </wgt>
<wgt id='1550'> +7.2049436e+04 </wgt>
<wgt id='1551'> +7.4695221e+04 </wgt>
<wgt id='1552'> +7.5283897e+04 </wgt>
<wgt id='1553'> +7.4673977e+04 </wgt>
<wgt id='1554'> +8.0081801e+04 </wgt>
<wgt id='1555'> +7.1116890e+04 </wgt>
<wgt id='1556'> +7.0287939e+04 </wgt>
<wgt id='1557'> +7.2197328e+04 </wgt>
<wgt id='1558'> +7.3413028e+04 </wgt>
<wgt id='1559'> +7.2111370e+04 </wgt>
<wgt id='1560'> +7.5792039e+04 </wgt>
<wgt id='1561'> +7.2467438e+04 </wgt>
<wgt id='1562'> +7.2929424e+04 </wgt>
<wgt id='1563'> +7.0913141e+04 </wgt>
<wgt id='1564'> +7.7360181e+04 </wgt>
<wgt id='1565'> +7.7293180e+04 </wgt>
<wgt id='1566'> +7.5038352e+04 </wgt>
<wgt id='1567'> +7.5848271e+04 </wgt>
<wgt id='1568'> +7.4677178e+04 </wgt>
<wgt id='1569'> +7.2536760e+04 </wgt>
<wgt id='1570'> +7.7406216e+04 </wgt>
<wgt id='1571'> +7.1675204e+04 </wgt>
<wgt id='1572'> +7.2763294e+04 </wgt>
<wgt id='1573'> +7.3992985e+04 </wgt>
<wgt id='1574'> +7.2119631e+04 </wgt>
<wgt id='1575'> +7.3367393e+04 </wgt>
<wgt id='1576'> +7.4857388e+04 </wgt>
<wgt id='1577'> +7.2670909e+04 </wgt>
<wgt id='1578'> +7.4964942e+04 </wgt>
<wgt id='1579'> +7.1672454e+04 </wgt>
<wgt id='1580'> +7.1969966e+04 </wgt>
<wgt id='1581'> +7.4850770e+04 </wgt>
<wgt id='1582'> +7.5110314e+04 </wgt>
<wgt id='1583'> +7.5807230e+04 </wgt>
<wgt id='1584'> +7.3785513e+04 </wgt>
<wgt id='1585'> +7.7994307e+04 </wgt>
<wgt id='1586'> +7.8395665e+04 </wgt>
<wgt id='1587'> +7.7354189e+04 </wgt>
<wgt id='1588'> +7.6851677e+04 </wgt>
<wgt id='1589'> +7.6137659e+04 </wgt>
<wgt id='1590'> +7.6174580e+04 </wgt>
<wgt id='1591'> +7.5579414e+04 </wgt>
<wgt id='1592'> +7.5390642e+04 </wgt>
<wgt id='1593'> +7.1016389e+04 </wgt>
<wgt id='1594'> +6.9822657e+04 </wgt>
<wgt id='1595'> +6.8972398e+04 </wgt>
<wgt id='1596'> +6.9943363e+04 </wgt>
<wgt id='1597'> +7.2211464e+04 </wgt>
<wgt id='1598'> +6.8556466e+04 </wgt>
<wgt id='1599'> +7.3009802e+04 </wgt>
<wgt id='1600'> +6.9854728e+04 </wgt>
<wgt id='1601'> +7.1708412e+04 </wgt>
<wgt id='1602'> +6.7521588e+04 </wgt>
<wgt id='1603'> +7.3993337e+04 </wgt>
<wgt id='1604'> +7.0426147e+04 </wgt>
<wgt id='1605'> +7.2632334e+04 </wgt>
<wgt id='1606'> +7.1052979e+04 </wgt>
<wgt id='1607'> +6.9944140e+04 </wgt>
<wgt id='1608'> +7.1103709e+04 </wgt>
<wgt id='1609'> +6.9862514e+04 </wgt>
<wgt id='1610'> +7.3127405e+04 </wgt>
<wgt id='1611'> +6.8527579e+04 </wgt>
<wgt id='1612'> +7.1411426e+04 </wgt>
<wgt id='1613'> +6.8742525e+04 </wgt>
<wgt id='1614'> +7.1543922e+04 </wgt>
<wgt id='1615'> +7.0139969e+04 </wgt>
<wgt id='1616'> +7.1378581e+04 </wgt>
<wgt id='1617'> +6.9669356e+04 </wgt>
<wgt id='1618'> +6.9746278e+04 </wgt>
<wgt id='1619'> +7.4317080e+04 </wgt>
<wgt id='1620'> +7.0657455e+04 </wgt>
<wgt id='1621'> +7.1043205e+04 </wgt>
<wgt id='1622'> +6.9769617e+04 </wgt>
<wgt id='1623'> +7.0625652e+04 </wgt>
<wgt id='1624'> +7.0168624e+04 </wgt>
<wgt id='1625'> +7.1767439e+04 </wgt>
<wgt id='1626'> +6.9103883e+04 </wgt>
<wgt id='1627'> +7.2325933e+04 </wgt>
<wgt id='1628'> +7.0528498e+04 </wgt>
<wgt id='1629'> +7.1259507e+04 </wgt>
<wgt id='1630'> +7.0982854e+04 </wgt>
<wgt id='1631'> +7.0147607e+04 </wgt>
<wgt id='1632'> +6.9561976e+04 </wgt>
<wgt id='1633'> +7.1762367e+04 </wgt>
<wgt id='1634'> +7.1544346e+04 </wgt>
<wgt id='1635'> +7.0052600e+04 </wgt>
<wgt id='1636'> +7.1079571e+04 </wgt>
<wgt id='1637'> +7.0792229e+04 </wgt>
<wgt id='1638'> +7.2808539e+04 </wgt>
<wgt id='1639'> +7.0022001e+04 </wgt>
<wgt id='1640'> +7.1851149e+04 </wgt>
<wgt id='1641'> +6.9746698e+04 </wgt>
<wgt id='1642'> +7.0154450e+04 </wgt>
<wgt id='1643'> +7.1374608e+04 </wgt>
<wgt id='1644'> +7.3035728e+04 </wgt>
<wgt id='1645'> +6.7762962e+04 </wgt>
<wgt id='1646'> +7.0258727e+04 </wgt>
<wgt id='1647'> +7.1840585e+04 </wgt>
<wgt id='1648'> +6.9623480e+04 </wgt>
<wgt id='1649'> +7.1209450e+04 </wgt>
<wgt id='1650'> +7.1640439e+04 </wgt>
<wgt id='1651'> +7.0098318e+04 </wgt>
<wgt id='1652'> +7.1139742e+04 </wgt>
<wgt id='1653'> +7.1065726e+04 </wgt>
<wgt id='1654'> +7.0996636e+04 </wgt>
<wgt id='1655'> +7.1010529e+04 </wgt>
<wgt id='1656'> +7.2798907e+04 </wgt>
<wgt id='1657'> +7.0554760e+04 </wgt>
<wgt id='1658'> +7.2389571e+04 </wgt>
<wgt id='1659'> +7.4206987e+04 </wgt>
<wgt id='1660'> +7.1594904e+04 </wgt>
<wgt id='1661'> +7.2609548e+04 </wgt>
<wgt id='1662'> +7.2253349e+04 </wgt>
<wgt id='1663'> +7.2126417e+04 </wgt>
<wgt id='1664'> +7.1236835e+04 </wgt>
<wgt id='1665'> +7.3114143e+04 </wgt>
<wgt id='1666'> +7.1867353e+04 </wgt>
<wgt id='1667'> +7.3817972e+04 </wgt>
<wgt id='1668'> +7.1805277e+04 </wgt>
<wgt id='1669'> +7.1787231e+04 </wgt>
<wgt id='1670'> +7.3532829e+04 </wgt>
<wgt id='1671'> +7.3231832e+04 </wgt>
<wgt id='1672'> +7.2189324e+04 </wgt>
<wgt id='1673'> +6.9702671e+04 </wgt>
<wgt id='1674'> +7.4608991e+04 </wgt>
<wgt id='1675'> +7.4560111e+04 </wgt>
<wgt id='1676'> +7.0656639e+04 </wgt>
<wgt id='1677'> +7.1971465e+04 </wgt>
<wgt id='1678'> +7.3471391e+04 </wgt>
<wgt id='1679'> +6.9690527e+04 </wgt>
<wgt id='1680'> +7.6077812e+04 </wgt>
<wgt id='1681'> +7.3587740e+04 </wgt>
<wgt id='1682'> +7.1239003e+04 </wgt>
<wgt id='1683'> +7.1968659e+04 </wgt>
<wgt id='1684'> +7.3367449e+04 </wgt>
<wgt id='1685'> +7.3682842e+04 </wgt>
<wgt id='1686'> +7.1062557e+04 </wgt>
<wgt id='1687'> +7.2890607e+04 </wgt>
<wgt id='1688'> +7.1827649e+04 </wgt>
<wgt id='1689'> +7.3091740e+04 </wgt>
<wgt id='1690'> +7.2546886e+04 </wgt>
<wgt id='1691'> +7.3217784e+04 </wgt>
<wgt id='1692'> +7.1560829e+04 </wgt>
<wgt id='1693'> +7.4394802e+04 </wgt>
<wgt id='1694'> +7.1657449e+04 </wgt>
<wgt id='1695'> +7.1786555e+04 </wgt>
<wgt id='1696'> +7.2808690e+04 </wgt>
<wgt id='1697'> +7.3007968e+04 </wgt>
<wgt id='1698'> +7.1965966e+04 </wgt>
<wgt id='1699'> +6.9876887e+04 </wgt>
<wgt id='1700'> +7.6582366e+04 </wgt>
<wgt id='1701'> +7.1614156e+04 </wgt>
<wgt id='1702'> +7.4075349e+04 </wgt>
<wgt id='1703'> +7.4605819e+04 </wgt>
<wgt id='1704'> +7.1216376e+04 </wgt>
<wgt id='1705'> +7.2619877e+04 </wgt>
<wgt id='1706'> +7.2911801e+04 </wgt>
<wgt id='1707'> +7.2056585e+04 </wgt>
<wgt id='1708'> +7.3188392e+04 </wgt>
<wgt id='1709'> +7.3086969e+04 </wgt>
<wgt id='1710'> +7.2480217e+04 </wgt>
<wgt id='1711'> +7.1879931e+04 </wgt>
<wgt id='1712'> +7.2477819e+04 </wgt>
<wgt id='1713'> +7.2984565e+04 </wgt>
<wgt id='1714'> +7.2274244e+04 </wgt>
<wgt id='1715'> +6.8625328e+04 </wgt>
<wgt id='1716'> +7.2739016e+04 </wgt>
<wgt id='1717'> +7.2601900e+04 </wgt>
<wgt id='1718'> +7.2205196e+04 </wgt>
<wgt id='1719'> +7.3105561e+04 </wgt>
<wgt id='1720'> +7.2602682e+04 </wgt>
<wgt id='1721'> +7.2601177e+04 </wgt>
<wgt id='1722'> +7.2642220e+04 </wgt>
<wgt id='1723'> +7.2535358e+04 </wgt>
<wgt id='1724'> +7.3060893e+04 </wgt>
<wgt id='1725'> +7.2229413e+04 </wgt>
<wgt id='1726'> +7.2598974e+04 </wgt>
<wgt id='1727'> +7.2603922e+04 </wgt>
<wgt id='1728'> +7.0879148e+04 </wgt>
<wgt id='1729'> +7.4283978e+04 </wgt>
<wgt id='1730'> +7.3085247e+04 </wgt>
<wgt id='1731'> +7.2257682e+04 </wgt>
<wgt id='1732'> +7.3479627e+04 </wgt>
<wgt id='1733'> +7.3479627e+04 </wgt>
<wgt id='1734'> +7.2169659e+04 </wgt>
<wgt id='1735'> +7.2892541e+04 </wgt>
<wgt id='1736'> +7.1960098e+04 </wgt>
<wgt id='1737'> +7.3492401e+04 </wgt>
<wgt id='1738'> +7.2764707e+04 </wgt>
<wgt id='1739'> +7.2247689e+04 </wgt>
<wgt id='1740'> +7.2499453e+04 </wgt>
<wgt id='1741'> +7.2844914e+04 </wgt>
<wgt id='1742'> +7.2383909e+04 </wgt>
<wgt id='1743'> +7.2846675e+04 </wgt>
<wgt id='1744'> +7.2930304e+04 </wgt>
<wgt id='1745'> +7.1702985e+04 </wgt>
<wgt id='1746'> +7.2863149e+04 </wgt>
<wgt id='1747'> +7.2426327e+04 </wgt>
<wgt id='1748'> +7.3363590e+04 </wgt>
<wgt id='1749'> +7.0298463e+04 </wgt>
<wgt id='1750'> +7.3172201e+04 </wgt>
<wgt id='1751'> +7.1994233e+04 </wgt>
<wgt id='1752'> +7.2642760e+04 </wgt>
<wgt id='1753'> +7.2551735e+04 </wgt>
<wgt id='1754'> +7.2070328e+04 </wgt>
<wgt id='1755'> +7.2902436e+04 </wgt>
<wgt id='1756'> +7.3083019e+04 </wgt>
<wgt id='1757'> +7.1433893e+04 </wgt>
<wgt id='1758'> +7.2354152e+04 </wgt>
<wgt id='1759'> +7.2683853e+04 </wgt>
<wgt id='1760'> +7.1546013e+04 </wgt>
<wgt id='1761'> +7.3657634e+04 </wgt>
<wgt id='1762'> +7.2558877e+04 </wgt>
<wgt id='1763'> +7.2530255e+04 </wgt>
<wgt id='1764'> +7.2610048e+04 </wgt>
<wgt id='1765'> +7.2502544e+04 </wgt>
<wgt id='1766'> +7.2979161e+04 </wgt>
<wgt id='1767'> +7.2151210e+04 </wgt>
<wgt id='1768'> +7.2692371e+04 </wgt>
<wgt id='1769'> +7.2520764e+04 </wgt>
<wgt id='1770'> +7.2125851e+04 </wgt>
<wgt id='1771'> +7.3153081e+04 </wgt>
<wgt id='1772'> +7.2374030e+04 </wgt>
<wgt id='1773'> +7.3212844e+04 </wgt>
<wgt id='1774'> +7.1678035e+04 </wgt>
<wgt id='1775'> +7.3163521e+04 </wgt>
<wgt id='1776'> +7.3356723e+04 </wgt>
<wgt id='1777'> +7.2267924e+04 </wgt>
<wgt id='1778'> +7.1770698e+04 </wgt>
<wgt id='1779'> +7.2665001e+04 </wgt>
<wgt id='1780'> +7.3546968e+04 </wgt>
<wgt id='1781'> +7.2616083e+04 </wgt>
<wgt id='1782'> +7.2601900e+04 </wgt>
<wgt id='1783'> +7.2677934e+04 </wgt>
<wgt id='1784'> +7.2092917e+04 </wgt>
<wgt id='1785'> +7.2510920e+04 </wgt>
<wgt id='1786'> +7.1034893e+04 </wgt>
<wgt id='1787'> +7.2097181e+04 </wgt>
<wgt id='1788'> +6.9753552e+04 </wgt>
<wgt id='1789'> +7.2124741e+04 </wgt>
<wgt id='1790'> +7.2503069e+04 </wgt>
<wgt id='1791'> +7.2162145e+04 </wgt>
<wgt id='1792'> +7.1787247e+04 </wgt>
<wgt id='1793'> +7.2166654e+04 </wgt>
<wgt id='1794'> +7.2002134e+04 </wgt>
<wgt id='1795'> +7.2316320e+04 </wgt>
<wgt id='1796'> +7.2546355e+04 </wgt>
<wgt id='1797'> +7.1524072e+04 </wgt>
<wgt id='1798'> +7.2181010e+04 </wgt>
<wgt id='1799'> +7.2695735e+04 </wgt>
<wgt id='1800'> +7.2644703e+04 </wgt>
<wgt id='1801'> +7.1671942e+04 </wgt>
<wgt id='1802'> +7.2278418e+04 </wgt>
<wgt id='1803'> +7.1750253e+04 </wgt>
<wgt id='1804'> +7.2047584e+04 </wgt>
<wgt id='1805'> +7.0706280e+04 </wgt>
<wgt id='1806'> +7.1719966e+04 </wgt>
<wgt id='1807'> +7.1831406e+04 </wgt>
<wgt id='1808'> +7.2208967e+04 </wgt>
<wgt id='1809'> +7.2335319e+04 </wgt>
<wgt id='1810'> +7.2139561e+04 </wgt>
<wgt id='1811'> +7.2171026e+04 </wgt>
<wgt id='1812'> +7.2165868e+04 </wgt>
<wgt id='1813'> +7.2045838e+04 </wgt>
<wgt id='1814'> +7.2268243e+04 </wgt>
<wgt id='1815'> +7.2250126e+04 </wgt>
<wgt id='1816'> +7.2185191e+04 </wgt>
<wgt id='1817'> +7.2034398e+04 </wgt>
<wgt id='1818'> +7.2070200e+04 </wgt>
<wgt id='1819'> +7.2737903e+04 </wgt>
<wgt id='1820'> +7.1679813e+04 </wgt>
<wgt id='1821'> +7.2672554e+04 </wgt>
<wgt id='1822'> +7.3623889e+04 </wgt>
<wgt id='1823'> +7.1998876e+04 </wgt>
<wgt id='1824'> +7.2075560e+04 </wgt>
<wgt id='1825'> +7.2255355e+04 </wgt>
<wgt id='1826'> +7.3045386e+04 </wgt>
<wgt id='1827'> +5.3258009e+04 </wgt>
<wgt id='1828'> +5.3415426e+04 </wgt>
<wgt id='1829'> +5.3078161e+04 </wgt>
<wgt id='1830'> +5.3155925e+04 </wgt>
<wgt id='1831'> +5.3336205e+04 </wgt>
<wgt id='1832'> +5.3312725e+04 </wgt>
<wgt id='1833'> +5.3180120e+04 </wgt>
<wgt id='1834'> +5.2692930e+04 </wgt>
<wgt id='1835'> +5.3784707e+04 </wgt>
<wgt id='1836'> +5.3544741e+04 </wgt>
<wgt id='1837'> +5.2940481e+04 </wgt>
<wgt id='1838'> +5.3275914e+04 </wgt>
<wgt id='1839'> +5.3216319e+04 </wgt>
<wgt id='1840'> +5.3186408e+04 </wgt>
<wgt id='1841'> +5.3311243e+04 </wgt>
<wgt id='1842'> +5.3293807e+04 </wgt>
<wgt id='1843'> +5.3337559e+04 </wgt>
<wgt id='1844'> +5.3288249e+04 </wgt>
<wgt id='1845'> +5.3192195e+04 </wgt>
<wgt id='1846'> +5.3143692e+04 </wgt>
<wgt id='1847'> +5.3343610e+04 </wgt>
<wgt id='1848'> +5.3644326e+04 </wgt>
<wgt id='1849'> +5.2766417e+04 </wgt>
<wgt id='1850'> +5.4778506e+04 </wgt>
<wgt id='1851'> +5.1790324e+04 </wgt>
<wgt id='1852'> +5.6447230e+04 </wgt>
<wgt id='1853'> +5.0284846e+04 </wgt>
<wgt id='1854'> +5.5509180e+04 </wgt>
<wgt id='1855'> +5.1211410e+04 </wgt>
<wgt id='1856'> +7.1804602e+04 </wgt>
<wgt id='1857'> +7.1791216e+04 </wgt>
<wgt id='1858'> +7.1718204e+04 </wgt>
<wgt id='1859'> +7.1711942e+04 </wgt>
<wgt id='1860'> +7.1808514e+04 </wgt>
<wgt id='1861'> +7.2000475e+04 </wgt>
<wgt id='1862'> +7.1184507e+04 </wgt>
<wgt id='1863'> +7.2009157e+04 </wgt>
<wgt id='1864'> +7.1662697e+04 </wgt>
<wgt id='1865'> +7.1407134e+04 </wgt>
<wgt id='1866'> +7.1681945e+04 </wgt>
<wgt id='1867'> +7.1777362e+04 </wgt>
<wgt id='1868'> +7.1841756e+04 </wgt>
<wgt id='1869'> +7.1976389e+04 </wgt>
<wgt id='1870'> +7.1591758e+04 </wgt>
<wgt id='1871'> +7.1914742e+04 </wgt>
<wgt id='1872'> +7.1541424e+04 </wgt>
<wgt id='1873'> +7.1754823e+04 </wgt>
<wgt id='1874'> +7.1529363e+04 </wgt>
<wgt id='1875'> +7.1824550e+04 </wgt>
<wgt id='1876'> +7.2262322e+04 </wgt>
<wgt id='1877'> +7.1509876e+04 </wgt>
<wgt id='1878'> +7.1532217e+04 </wgt>
<wgt id='1879'> +7.1429804e+04 </wgt>
<wgt id='1880'> +7.1887207e+04 </wgt>
<wgt id='1881'> +7.1599937e+04 </wgt>
<wgt id='1882'> +7.2097168e+04 </wgt>
<wgt id='1883'> +7.0890479e+04 </wgt>
<wgt id='1884'> +7.2677963e+04 </wgt>
<wgt id='1885'> +7.1340907e+04 </wgt>
<wgt id='1886'> +9.1683708e+04 </wgt>
<wgt id='1887'> +9.2686530e+04 </wgt>
<wgt id='1888'> +6.6736841e+04 </wgt>
<wgt id='1889'> +7.5598449e+04 </wgt>
</rwgt>
</event>
<event npLO=" -1 " npNLO=" 0 ">
 5      1 +7.4519530e+04 2.29497180e+01 7.55820760e-03 1.21275800e-01
       -4 -1    0    0    0  501 +0.0000000000e+00 +0.0000000000e+00 +3.0834232060e+02 3.0834232060e+02 0.0000000000e+00 0.0000e+00 1.0000e+00
        3 -1    0    0  501    0 +0.0000000000e+00 +0.0000000000e+00 -4.7149050743e+00 4.7149050743e+00 0.0000000000e+00 0.0000e+00 -1.0000e+00
      -24  2    1    2    0    0 +0.0000000000e+00 +0.0000000000e+00 +3.0362741552e+02 3.1305722567e+02 7.6257583807e+01 0.0000e+00 0.0000e+00
       13  1    3    3    0    0 -2.8262582622e+01 +1.8885739659e+01 +8.0903131484e+01 8.7753982376e+01 0.0000000000e+00 0.0000e+00 -1.0000e+00
      -14  1    3    3    0    0 +2.8262582622e+01 -1.8885739659e+01 +2.2272428404e+02 2.2530324329e+02 0.0000000000e+00 0.0000e+00 1.0000e+00
#aMCatNLO 1  0  0  2  1 0.38247356E+01 0.00000000E+00 -9  5  0 0.00000000E+00 0.00000000E+00 0.00000000E+00 0.00000000E+00 0.00000000E+00
<rwgt>
<wgt id='1001'> +7.4519530e+04 </wgt>
<wgt id='1002'> +7.2556218e+04 </wgt>
<wgt id='1003'> +7.6970521e+04 </wgt>
<wgt id='1004'> +8.7064689e+04 </wgt>
<wgt id='1005'> +8.4816715e+04 </wgt>
<wgt id='1006'> +8.9871044e+04 </wgt>
<wgt id='1007'> +6.0858164e+04 </wgt>
<wgt id='1008'> +5.9233699e+04 </wgt>
<wgt id='1009'> +6.2886139e+04 </wgt>
<wgt id='1010'> +7.4519530e+04 </wgt>
<wgt id='1011'> +7.5438685e+04 </wgt>
<wgt id='1012'> +7.4527972e+04 </wgt>
<wgt id='1013'> +7.4514777e+04 </wgt>
<wgt id='1014'> +7.3193270e+04 </wgt>
<wgt id='1015'> +7.5609672e+04 </wgt>
<wgt id='1016'> +7.3734993e+04 </wgt>
<wgt id='1017'> +7.4256196e+04 </wgt>
<wgt id='1018'> +7.5001385e+04 </wgt>
<wgt id='1019'> +7.3523200e+04 </wgt>
<wgt id='1020'> +7.5377333e+04 </wgt>
<wgt id='1021'> +7.4972376e+04 </wgt>
<wgt id='1022'> +7.3815385e+04 </wgt>
<wgt id='1023'> +7.3721646e+04 </wgt>
<wgt id='1024'> +7.4635113e+04 </wgt>
<wgt id='1025'> +7.2684310e+04 </wgt>
<wgt id='1026'> +7.5814661e+04 </wgt>
<wgt id='1027'> +7.4837924e+04 </wgt>
<wgt id='1028'> +7.5864613e+04 </wgt>
<wgt id='1029'> +7.3854376e+04 </wgt>
<wgt id='1030'> +7.4292106e+04 </wgt>
<wgt id='1031'> +7.4753891e+04 </wgt>
<wgt id='1032'> +7.3088616e+04 </wgt>
<wgt id='1033'> +7.4870116e+04 </wgt>
<wgt id='1034'> +7.5930338e+04 </wgt>
<wgt id='1035'> +7.4816218e+04 </wgt>
<wgt id='1036'> +7.4280380e+04 </wgt>
<wgt id='1037'> +7.3168302e+04 </wgt>
<wgt id='1038'> +7.4480587e+04 </wgt>
<wgt id='1039'> +7.3111071e+04 </wgt>
<wgt id='1040'> +7.4307669e+04 </wgt>
<wgt id='1041'> +7.3080353e+04 </wgt>
<wgt id='1042'> +7.5184074e+04 </wgt>
<wgt id='1043'> +7.3964034e+04 </wgt>
<wgt id='1044'> +7.4146380e+04 </wgt>
<wgt id='1045'> +7.4544052e+04 </wgt>
<wgt id='1046'> +7.5256410e+04 </wgt>
<wgt id='1047'> +7.5227816e+04 </wgt>
<wgt id='1048'> +7.4063196e+04 </wgt>
<wgt id='1049'> +7.4228449e+04 </wgt>
<wgt id='1050'> +7.4203862e+04 </wgt>
<wgt id='1051'> +7.4941310e+04 </wgt>
<wgt id='1052'> +7.4608477e+04 </wgt>
<wgt id='1053'> +7.4875574e+04 </wgt>
<wgt id='1054'> +7.4373112e+04 </wgt>
<wgt id='1055'> +7.4763705e+04 </wgt>
<wgt id='1056'> +7.4376345e+04 </wgt>
<wgt id='1057'> +7.4628382e+04 </wgt>
<wgt id='1058'> +7.3777341e+04 </wgt>
<wgt id='1059'> +7.4928440e+04 </wgt>
<wgt id='1060'> +7.4608686e+04 </wgt>
<wgt id='1061'> +7.4477236e+04 </wgt>
<wgt id='1062'> +7.4034276e+04 </wgt>
<wgt id='1063'> +7.4650880e+04 </wgt>
<wgt id='1064'> +7.4514411e+04 </wgt>
<wgt id='1065'> +7.4605651e+04 </wgt>
<wgt id='1066'> +7.3574725e+04 </wgt>
<wgt id='1067'> +7.4196958e+04 </wgt>
<wgt id='1068'> +7.4664782e+04 </wgt>
<wgt id='1069'> +7.4374160e+04 </wgt>
<wgt id='1070'> +7.4036454e+04 </wgt>
<wgt id='1071'> +7.4218811e+04 </wgt>
<wgt id='1072'> +7.4626378e+04 </wgt>
<wgt id='1073'> +7.4983655e+04 </wgt>
<wgt id='1074'> +7.4449669e+04 </wgt>
<wgt id='1075'> +7.4654942e+04 </wgt>
<wgt id='1076'> +7.3858984e+04 </wgt>
<wgt id='1077'> +7.4401630e+04 </wgt>
<wgt id='1078'> +7.3967874e+04 </wgt>
<wgt id='1079'> +7.4666384e+04 </wgt>
<wgt id='1080'> +7.3821222e+04 </wgt>
<wgt id='1081'> +7.4509586e+04 </wgt>
<wgt id='1082'> +7.4723825e+04 </wgt>
<wgt id='1083'> +7.4481523e+04 </wgt>
<wgt id='1084'> +7.4500443e+04 </wgt>
<wgt id='1085'> +7.4478155e+04 </wgt>
<wgt id='1086'> +7.4470181e+04 </wgt>
<wgt id='1087'> +7.4550285e+04 </wgt>
<wgt id='1088'> +7.4157021e+04 </wgt>
<wgt id='1089'> +7.4528983e+04 </wgt>
<wgt id='1090'> +7.4246219e+04 </wgt>
<wgt id='1091'> +7.4292747e+04 </wgt>
<wgt id='1092'> +7.4383906e+04 </wgt>
<wgt id='1093'> +7.4200332e+04 </wgt>
<wgt id='1094'> +7.4340707e+04 </wgt>
<wgt id='1095'> +7.4679720e+04 </wgt>
<wgt id='1096'> +7.4468292e+04 </wgt>
<wgt id='1097'> +7.4260648e+04 </wgt>
<wgt id='1098'> +7.4802907e+04 </wgt>
<wgt id='1099'> +7.4503470e+04 </wgt>
<wgt id='1100'> +7.5021086e+04 </wgt>
<wgt id='1101'> +7.4775518e+04 </wgt>
<wgt id='1102'> +7.4592805e+04 </wgt>
<wgt id='1103'> +7.4354212e+04 </wgt>
<wgt id='1104'> +7.3948019e+04 </wgt>
<wgt id='1105'> +7.4218538e+04 </wgt>
<wgt id='1106'> +7.4588194e+04 </wgt>
<wgt id='1107'> +7.4740258e+04 </wgt>
<wgt id='1108'> +7.4611757e+04 </wgt>
<wgt id='1109'> +7.4357051e+04 </wgt>
<wgt id='1110'> +7.4519531e+04 </wgt>
<wgt id='1111'> +6.9467345e+04 </wgt>
<wgt id='1112'> +7.7513840e+04 </wgt>
<wgt id='1113'> +7.4519531e+04 </wgt>
<wgt id='1114'> +5.8871910e+04 </wgt>
<wgt id='1115'> +7.8169103e+04 </wgt>
<wgt id='1116'> +7.5019363e+04 </wgt>
<wgt id='1117'> +7.6669679e+04 </wgt>
<wgt id='1118'> +7.4355076e+04 </wgt>
<wgt id='1119'> +7.0574054e+04 </wgt>
<wgt id='1120'> +7.4685318e+04 </wgt>
<wgt id='1121'> +8.0634093e+04 </wgt>
<wgt id='1122'> +7.4600496e+04 </wgt>
<wgt id='1123'> +7.3102609e+04 </wgt>
<wgt id='1124'> +7.6578265e+04 </wgt>
<wgt id='1125'> +7.7772955e+04 </wgt>
<wgt id='1126'> +7.9575089e+04 </wgt>
<wgt id='1127'> +7.5695223e+04 </wgt>
<wgt id='1128'> +7.4353506e+04 </wgt>
<wgt id='1129'> +7.6454025e+04 </wgt>
<wgt id='1130'> +6.4155153e+04 </wgt>
<wgt id='1131'> +7.9473191e+04 </wgt>
<wgt id='1132'> +7.1315584e+04 </wgt>
<wgt id='1133'> +7.9214842e+04 </wgt>
<wgt id='1134'> +7.1790583e+04 </wgt>
<wgt id='1135'> +6.7245789e+04 </wgt>
<wgt id='1136'> +6.9710600e+04 </wgt>
<wgt id='1137'> +7.6002299e+04 </wgt>
<wgt id='1138'> +7.7057813e+04 </wgt>
<wgt id='1139'> +6.9808821e+04 </wgt>
<wgt id='1140'> +5.8862000e+04 </wgt>
<wgt id='1141'> +7.5886317e+04 </wgt>
<wgt id='1142'> +7.1094087e+04 </wgt>
<wgt id='1143'> +7.2206668e+04 </wgt>
<wgt id='1144'> +6.7606442e+04 </wgt>
<wgt id='1145'> +8.8779075e+04 </wgt>
<wgt id='1146'> +7.4085455e+04 </wgt>
<wgt id='1147'> +7.8399437e+04 </wgt>
<wgt id='1148'> +7.1606983e+04 </wgt>
<wgt id='1149'> +7.2577870e+04 </wgt>
<wgt id='1150'> +7.4774481e+04 </wgt>
<wgt id='1151'> +7.3738147e+04 </wgt>
<wgt id='1152'> +7.3031903e+04 </wgt>
<wgt id='1153'> +7.7085917e+04 </wgt>
<wgt id='1154'> +7.0877156e+04 </wgt>
<wgt id='1155'> +7.7792831e+04 </wgt>
<wgt id='1156'> +6.5935648e+04 </wgt>
<wgt id='1157'> +6.4829766e+04 </wgt>
<wgt id='1158'> +7.9847423e+04 </wgt>
<wgt id='1159'> +7.1736168e+04 </wgt>
<wgt id='1160'> +7.6931370e+04 </wgt>
<wgt id='1161'> +8.1279206e+04 </wgt>
<wgt id='1162'> +7.1189882e+04 </wgt>
<wgt id='1163'> +7.4300410e+04 </wgt>
<wgt id='1164'> +7.3654516e+04 </wgt>
<wgt id='1165'> +7.7658904e+04 </wgt>
<wgt id='1166'> +7.7163583e+04 </wgt>
<wgt id='1167'> +7.0087079e+04 </wgt>
<wgt id='1168'> +7.1832125e+04 </wgt>
<wgt id='1169'> +7.2836140e+04 </wgt>
<wgt id='1170'> +6.5954692e+04 </wgt>
<wgt id='1171'> +7.4330251e+04 </wgt>
<wgt id='1172'> +7.0766240e+04 </wgt>
<wgt id='1173'> +6.4161040e+04 </wgt>
<wgt id='1174'> +7.3039755e+04 </wgt>
<wgt id='1175'> +7.7203109e+04 </wgt>
<wgt id='1176'> +6.6502982e+04 </wgt>
<wgt id='1177'> +8.3653151e+04 </wgt>
<wgt id='1178'> +7.3578225e+04 </wgt>
<wgt id='1179'> +7.8163103e+04 </wgt>
<wgt id='1180'> +7.3591051e+04 </wgt>
<wgt id='1181'> +7.0973236e+04 </wgt>
<wgt id='1182'> +7.6518442e+04 </wgt>
<wgt id='1183'> +8.0078542e+04 </wgt>
<wgt id='1184'> +6.9939194e+04 </wgt>
<wgt id='1185'> +7.4127468e+04 </wgt>
<wgt id='1186'> +9.0691992e+04 </wgt>
<wgt id='1187'> +8.6612733e+04 </wgt>
<wgt id='1188'> +7.7463516e+04 </wgt>
<wgt id='1189'> +6.0485429e+04 </wgt>
<wgt id='1190'> +8.1886172e+04 </wgt>
<wgt id='1191'> +7.4418596e+04 </wgt>
<wgt id='1192'> +7.6163867e+04 </wgt>
<wgt id='1193'> +7.2040889e+04 </wgt>
<wgt id='1194'> +7.5548160e+04 </wgt>
<wgt id='1195'> +7.6454025e+04 </wgt>
<wgt id='1196'> +7.6979466e+04 </wgt>
<wgt id='1197'> +7.8628830e+04 </wgt>
<wgt id='1198'> +7.7096318e+04 </wgt>
<wgt id='1199'> +6.9790458e+04 </wgt>
<wgt id='1200'> +7.8771196e+04 </wgt>
<wgt id='1201'> +7.1439397e+04 </wgt>
<wgt id='1202'> +9.0741895e+04 </wgt>
<wgt id='1203'> +7.7451856e+04 </wgt>
<wgt id='1204'> +7.1165953e+04 </wgt>
<wgt id='1205'> +8.3771159e+04 </wgt>
<wgt id='1206'> +7.6662165e+04 </wgt>
<wgt id='1207'> +7.7779519e+04 </wgt>
<wgt id='1208'> +8.1035127e+04 </wgt>
<wgt id='1209'> +7.4147502e+04 </wgt>
<wgt id='1210'> +6.5882340e+04 </wgt>
<wgt id='1211'> +7.2777228e+04 </wgt>
<wgt id='1212'> +8.2918027e+04 </wgt>
<wgt id='1213'> +7.1777239e+04 </wgt>
<wgt id='1214'> +7.3767832e+04 </wgt>
<wgt id='1215'> +5.1650525e+04 </wgt>
<wgt id='1216'> +5.6184948e+04 </wgt>
<wgt id='1217'> +6.0397535e+04 </wgt>
<wgt id='1218'> +6.4661702e+04 </wgt>
<wgt id='1219'> +7.1132672e+04 </wgt>
<wgt id='1220'> +7.5676780e+04 </wgt>
<wgt id='1221'> +8.2748149e+04 </wgt>
<wgt id='1222'> +8.7986817e+04 </wgt>
<wgt id='1223'> +6.8537590e+04 </wgt>
<wgt id='1224'> +6.8535338e+04 </wgt>
<wgt id='1225'> +6.8504230e+04 </wgt>
<wgt id='1226'> +6.8377491e+04 </wgt>
<wgt id='1227'> +6.6615802e+04 </wgt>
<wgt id='1228'> +6.8119046e+04 </wgt>
<wgt id='1229'> +6.8403015e+04 </wgt>
<wgt id='1230'> +6.7688791e+04 </wgt>
<wgt id='1231'> +6.8777998e+04 </wgt>
<wgt id='1232'> +6.7690302e+04 </wgt>
<wgt id='1233'> +7.0068770e+04 </wgt>
<wgt id='1234'> +6.8670921e+04 </wgt>
<wgt id='1235'> +6.8426774e+04 </wgt>
<wgt id='1236'> +6.8361767e+04 </wgt>
<wgt id='1237'> +6.7380713e+04 </wgt>
<wgt id='1238'> +6.9482375e+04 </wgt>
<wgt id='1239'> +6.7651396e+04 </wgt>
<wgt id='1240'> +6.9264187e+04 </wgt>
<wgt id='1241'> +6.8713307e+04 </wgt>
<wgt id='1242'> +6.8760836e+04 </wgt>
<wgt id='1243'> +6.9050462e+04 </wgt>
<wgt id='1244'> +6.7175215e+04 </wgt>
<wgt id='1245'> +6.8528843e+04 </wgt>
<wgt id='1246'> +6.8033327e+04 </wgt>
<wgt id='1247'> +6.7580409e+04 </wgt>
<wgt id='1248'> +6.9049103e+04 </wgt>
<wgt id='1249'> +6.8713790e+04 </wgt>
<wgt id='1250'> +6.8912130e+04 </wgt>
<wgt id='1251'> +6.8120133e+04 </wgt>
<wgt id='1252'> +6.7369854e+04 </wgt>
<wgt id='1253'> +6.9018576e+04 </wgt>
<wgt id='1254'> +6.9189255e+04 </wgt>
<wgt id='1255'> +6.8836994e+04 </wgt>
<wgt id='1256'> +6.8810115e+04 </wgt>
<wgt id='1257'> +6.9060786e+04 </wgt>
<wgt id='1258'> +6.9091434e+04 </wgt>
<wgt id='1259'> +6.9206312e+04 </wgt>
<wgt id='1260'> +6.9045377e+04 </wgt>
<wgt id='1261'> +6.9203893e+04 </wgt>
<wgt id='1262'> +6.8831674e+04 </wgt>
<wgt id='1263'> +6.8616041e+04 </wgt>
<wgt id='1264'> +6.9412269e+04 </wgt>
<wgt id='1265'> +6.8859138e+04 </wgt>
<wgt id='1266'> +6.7841111e+04 </wgt>
<wgt id='1267'> +6.9117930e+04 </wgt>
<wgt id='1268'> +6.8362250e+04 </wgt>
<wgt id='1269'> +6.8868954e+04 </wgt>
<wgt id='1270'> +6.8558351e+04 </wgt>
<wgt id='1271'> +6.8042753e+04 </wgt>
<wgt id='1272'> +6.8242439e+04 </wgt>
<wgt id='1273'> +6.8146946e+04 </wgt>
<wgt id='1274'> +6.7958481e+04 </wgt>
<wgt id='1275'> +6.8861895e+04 </wgt>
<wgt id='1276'> +6.9046277e+04 </wgt>
<wgt id='1277'> +6.8585056e+04 </wgt>
<wgt id='1278'> +6.8538165e+04 </wgt>
<wgt id='1279'> +6.8253538e+04 </wgt>
<wgt id='1280'> +6.9164302e+04 </wgt>
<wgt id='1281'> +6.9009523e+04 </wgt>
<wgt id='1282'> +6.8246372e+04 </wgt>
<wgt id='1283'> +6.8037536e+04 </wgt>
<wgt id='1284'> +6.8110929e+04 </wgt>
<wgt id='1285'> +6.8151939e+04 </wgt>
<wgt id='1286'> +6.7602166e+04 </wgt>
<wgt id='1287'> +6.8662132e+04 </wgt>
<wgt id='1288'> +6.8400907e+04 </wgt>
<wgt id='1289'> +6.8204072e+04 </wgt>
<wgt id='1290'> +6.9206628e+04 </wgt>
<wgt id='1291'> +6.8622239e+04 </wgt>
<wgt id='1292'> +6.9306135e+04 </wgt>
<wgt id='1293'> +6.8834784e+04 </wgt>
<wgt id='1294'> +6.8499636e+04 </wgt>
<wgt id='1295'> +6.8099538e+04 </wgt>
<wgt id='1296'> +6.8963925e+04 </wgt>
<wgt id='1297'> +6.8034645e+04 </wgt>
<wgt id='1298'> +6.8795178e+04 </wgt>
<wgt id='1299'> +6.8716125e+04 </wgt>
<wgt id='1300'> +6.7974258e+04 </wgt>
<wgt id='1301'> +6.8503061e+04 </wgt>
<wgt id='1302'> +6.8794022e+04 </wgt>
<wgt id='1303'> +6.8854336e+04 </wgt>
<wgt id='1304'> +6.8508592e+04 </wgt>
<wgt id='1305'> +6.8639130e+04 </wgt>
<wgt id='1306'> +6.8154817e+04 </wgt>
<wgt id='1307'> +6.8809174e+04 </wgt>
<wgt id='1308'> +6.8484220e+04 </wgt>
<wgt id='1309'> +6.8834715e+04 </wgt>
<wgt id='1310'> +6.8745754e+04 </wgt>
<wgt id='1311'> +6.8990466e+04 </wgt>
<wgt id='1312'> +6.8852268e+04 </wgt>
<wgt id='1313'> +6.8572082e+04 </wgt>
<wgt id='1314'> +6.8413591e+04 </wgt>
<wgt id='1315'> +6.8720875e+04 </wgt>
<wgt id='1316'> +6.8360070e+04 </wgt>
<wgt id='1317'> +6.8178301e+04 </wgt>
<wgt id='1318'> +6.7886298e+04 </wgt>
<wgt id='1319'> +6.8664523e+04 </wgt>
<wgt id='1320'> +6.8576520e+04 </wgt>
<wgt id='1321'> +6.8831461e+04 </wgt>
<wgt id='1322'> +6.7898605e+04 </wgt>
<wgt id='1323'> +6.8629343e+04 </wgt>
<wgt id='1324'> +6.3777695e+04 </wgt>
<wgt id='1325'> +7.2650744e+04 </wgt>
<wgt id='1326'> +8.7094356e+04 </wgt>
<wgt id='1327'> +8.2193512e+04 </wgt>
<wgt id='1328'> +7.6659520e+04 </wgt>
<wgt id='1329'> +7.6089512e+04 </wgt>
<wgt id='1330'> +7.8752540e+04 </wgt>
<wgt id='1331'> +7.4262017e+04 </wgt>
<wgt id='1332'> +7.7600038e+04 </wgt>
<wgt id='1333'> +7.6323777e+04 </wgt>
<wgt id='1334'> +7.5415168e+04 </wgt>
<wgt id='1335'> +8.2238748e+04 </wgt>
<wgt id='1336'> +7.3467857e+04 </wgt>
<wgt id='1337'> +7.8797476e+04 </wgt>
<wgt id='1338'> +7.5334273e+04 </wgt>
<wgt id='1339'> +7.6479396e+04 </wgt>
<wgt id='1340'> +7.8128418e+04 </wgt>
<wgt id='1341'> +8.1338130e+04 </wgt>
<wgt id='1342'> +7.7001226e+04 </wgt>
<wgt id='1343'> +7.5705077e+04 </wgt>
<wgt id='1344'> +7.6506389e+04 </wgt>
<wgt id='1345'> +7.6417834e+04 </wgt>
<wgt id='1346'> +8.0509503e+04 </wgt>
<wgt id='1347'> +7.6332053e+04 </wgt>
<wgt id='1348'> +7.6086977e+04 </wgt>
<wgt id='1349'> +7.3731467e+04 </wgt>
<wgt id='1350'> +7.6725334e+04 </wgt>
<wgt id='1351'> +7.5800676e+04 </wgt>
<wgt id='1352'> +8.0385889e+04 </wgt>
<wgt id='1353'> +7.5011916e+04 </wgt>
<wgt id='1354'> +7.7449166e+04 </wgt>
<wgt id='1355'> +7.6201851e+04 </wgt>
<wgt id='1356'> +7.5573082e+04 </wgt>
<wgt id='1357'> +7.5611557e+04 </wgt>
<wgt id='1358'> +7.6703443e+04 </wgt>
<wgt id='1359'> +7.7769078e+04 </wgt>
<wgt id='1360'> +7.5698156e+04 </wgt>
<wgt id='1361'> +7.6749599e+04 </wgt>
<wgt id='1362'> +7.8560793e+04 </wgt>
<wgt id='1363'> +7.4583331e+04 </wgt>
<wgt id='1364'> +7.5802746e+04 </wgt>
<wgt id='1365'> +7.5924290e+04 </wgt>
<wgt id='1366'> +7.4094983e+04 </wgt>
<wgt id='1367'> +7.6212625e+04 </wgt>
<wgt id='1368'> +8.0303198e+04 </wgt>
<wgt id='1369'> +7.7977611e+04 </wgt>
<wgt id='1370'> +7.5925909e+04 </wgt>
<wgt id='1371'> +7.5587155e+04 </wgt>
<wgt id='1372'> +7.5263721e+04 </wgt>
<wgt id='1373'> +8.0852539e+04 </wgt>
<wgt id='1374'> +7.6022492e+04 </wgt>
<wgt id='1375'> +7.7364449e+04 </wgt>
<wgt id='1376'> +7.5582107e+04 </wgt>
<wgt id='1377'> +7.7894188e+04 </wgt>
<wgt id='1378'> +7.8239137e+04 </wgt>
<wgt id='1379'> +7.7509876e+04 </wgt>
<wgt id='1380'> +7.5355263e+04 </wgt>
<wgt id='1381'> +7.0376494e+04 </wgt>
<wgt id='1382'> +7.4471268e+04 </wgt>
<wgt id='1383'> +7.6124214e+04 </wgt>
<wgt id='1384'> +7.4304000e+04 </wgt>
<wgt id='1385'> +7.4872318e+04 </wgt>
<wgt id='1386'> +7.8932427e+04 </wgt>
<wgt id='1387'> +7.8436350e+04 </wgt>
<wgt id='1388'> +7.5274726e+04 </wgt>
<wgt id='1389'> +7.6750227e+04 </wgt>
<wgt id='1390'> +7.6351290e+04 </wgt>
<wgt id='1391'> +7.8493043e+04 </wgt>
<wgt id='1392'> +7.6982031e+04 </wgt>
<wgt id='1393'> +7.9942115e+04 </wgt>
<wgt id='1394'> +7.5924290e+04 </wgt>
<wgt id='1395'> +7.6336430e+04 </wgt>
<wgt id='1396'> +7.6164646e+04 </wgt>
<wgt id='1397'> +7.5845758e+04 </wgt>
<wgt id='1398'> +7.7197925e+04 </wgt>
<wgt id='1399'> +7.8171090e+04 </wgt>
<wgt id='1400'> +7.6270608e+04 </wgt>
<wgt id='1401'> +7.6756229e+04 </wgt>
<wgt id='1402'> +7.6022857e+04 </wgt>
<wgt id='1403'> +7.6675538e+04 </wgt>
<wgt id='1404'> +7.5682255e+04 </wgt>
<wgt id='1405'> +7.5897092e+04 </wgt>
<wgt id='1406'> +7.5799108e+04 </wgt>
<wgt id='1407'> +7.5670509e+04 </wgt>
<wgt id='1408'> +7.6850441e+04 </wgt>
<wgt id='1409'> +7.6429571e+04 </wgt>
<wgt id='1410'> +7.5390783e+04 </wgt>
<wgt id='1411'> +7.6804585e+04 </wgt>
<wgt id='1412'> +7.6322046e+04 </wgt>
<wgt id='1413'> +7.7588248e+04 </wgt>
<wgt id='1414'> +7.8185930e+04 </wgt>
<wgt id='1415'> +7.6743358e+04 </wgt>
<wgt id='1416'> +7.9473367e+04 </wgt>
<wgt id='1417'> +7.5401032e+04 </wgt>
<wgt id='1418'> +7.4250506e+04 </wgt>
<wgt id='1419'> +7.6677631e+04 </wgt>
<wgt id='1420'> +7.4929967e+04 </wgt>
<wgt id='1421'> +7.7390871e+04 </wgt>
<wgt id='1422'> +7.6570277e+04 </wgt>
<wgt id='1423'> +7.8909046e+04 </wgt>
<wgt id='1424'> +7.6821185e+04 </wgt>
<wgt id='1425'> +7.4535718e+04 </wgt>
<wgt id='1426'> +7.6217146e+04 </wgt>
<wgt id='1427'> +7.8702559e+04 </wgt>
<wgt id='1428'> +7.6785308e+04 </wgt>
<wgt id='1429'> +7.5176094e+04 </wgt>
<wgt id='1430'> +7.8756234e+04 </wgt>
<wgt id='1431'> +7.6873219e+04 </wgt>
<wgt id='1432'> +7.6941549e+04 </wgt>
<wgt id='1433'> +7.7127326e+04 </wgt>
<wgt id='1434'> +7.6846039e+04 </wgt>
<wgt id='1435'> +7.6681666e+04 </wgt>
<wgt id='1436'> +7.7512812e+04 </wgt>
<wgt id='1437'> +7.6813304e+04 </wgt>
<wgt id='1438'> +7.6959890e+04 </wgt>
<wgt id='1439'> +7.6876780e+04 </wgt>
<wgt id='1440'> +7.6859827e+04 </wgt>
<wgt id='1441'> +7.6848068e+04 </wgt>
<wgt id='1442'> +7.6756916e+04 </wgt>
<wgt id='1443'> +7.7216471e+04 </wgt>
<wgt id='1444'> +7.6820363e+04 </wgt>
<wgt id='1445'> +7.6705931e+04 </wgt>
<wgt id='1446'> +7.6991704e+04 </wgt>
<wgt id='1447'> +7.6631317e+04 </wgt>
<wgt id='1448'> +7.6894635e+04 </wgt>
<wgt id='1449'> +7.6738595e+04 </wgt>
<wgt id='1450'> +7.7208500e+04 </wgt>
<wgt id='1451'> +7.7340543e+04 </wgt>
<wgt id='1452'> +7.6755561e+04 </wgt>
<wgt id='1453'> +7.7338985e+04 </wgt>
<wgt id='1454'> +7.6679703e+04 </wgt>
<wgt id='1455'> +7.6776018e+04 </wgt>
<wgt id='1456'> +7.7231351e+04 </wgt>
<wgt id='1457'> +7.6902428e+04 </wgt>
<wgt id='1458'> +7.7527496e+04 </wgt>
<wgt id='1459'> +7.7144278e+04 </wgt>
<wgt id='1460'> +7.6472912e+04 </wgt>
<wgt id='1461'> +7.6868252e+04 </wgt>
<wgt id='1462'> +7.7383143e+04 </wgt>
<wgt id='1463'> +7.7247294e+04 </wgt>
<wgt id='1464'> +7.7298626e+04 </wgt>
<wgt id='1465'> +7.6562251e+04 </wgt>
<wgt id='1466'> +7.7082512e+04 </wgt>
<wgt id='1467'> +7.6724484e+04 </wgt>
<wgt id='1468'> +7.6860562e+04 </wgt>
<wgt id='1469'> +7.6956638e+04 </wgt>
<wgt id='1470'> +7.6768899e+04 </wgt>
<wgt id='1471'> +7.6634448e+04 </wgt>
<wgt id='1472'> +7.6729846e+04 </wgt>
<wgt id='1473'> +7.6592520e+04 </wgt>
<wgt id='1474'> +7.6763239e+04 </wgt>
<wgt id='1475'> +7.7000090e+04 </wgt>
<wgt id='1476'> +7.6827702e+04 </wgt>
<wgt id='1477'> +7.6608267e+04 </wgt>
<wgt id='1478'> +7.6692614e+04 </wgt>
<wgt id='1479'> +7.6625285e+04 </wgt>
<wgt id='1480'> +7.6907668e+04 </wgt>
<wgt id='1481'> +7.7074357e+04 </wgt>
<wgt id='1482'> +7.5176094e+04 </wgt>
<wgt id='1483'> +7.8756234e+04 </wgt>
<wgt id='1484'> +8.1908539e+04 </wgt>
<wgt id='1485'> +8.1340318e+04 </wgt>
<wgt id='1486'> +8.0853862e+04 </wgt>
<wgt id='1487'> +8.2358949e+04 </wgt>
<wgt id='1488'> +8.3489057e+04 </wgt>
<wgt id='1489'> +8.2678261e+04 </wgt>
<wgt id='1490'> +8.1296106e+04 </wgt>
<wgt id='1491'> +8.2379822e+04 </wgt>
<wgt id='1492'> +8.2429741e+04 </wgt>
<wgt id='1493'> +8.2811390e+04 </wgt>
<wgt id='1494'> +8.1897509e+04 </wgt>
<wgt id='1495'> +8.2848782e+04 </wgt>
<wgt id='1496'> +8.2251909e+04 </wgt>
<wgt id='1497'> +8.4130496e+04 </wgt>
<wgt id='1498'> +8.2056837e+04 </wgt>
<wgt id='1499'> +8.1770119e+04 </wgt>
<wgt id='1500'> +8.1338290e+04 </wgt>
<wgt id='1501'> +8.1855848e+04 </wgt>
<wgt id='1502'> +8.0832522e+04 </wgt>
<wgt id='1503'> +8.1595138e+04 </wgt>
<wgt id='1504'> +8.2532852e+04 </wgt>
<wgt id='1505'> +8.1534374e+04 </wgt>
<wgt id='1506'> +8.2966485e+04 </wgt>
<wgt id='1507'> +8.1716681e+04 </wgt>
<wgt id='1508'> +8.2421064e+04 </wgt>
<wgt id='1509'> +8.1326493e+04 </wgt>
<wgt id='1510'> +8.2065081e+04 </wgt>
<wgt id='1511'> +8.1420733e+04 </wgt>
<wgt id='1512'> +8.2479948e+04 </wgt>
<wgt id='1513'> +8.1802915e+04 </wgt>
<wgt id='1514'> +8.1663219e+04 </wgt>
<wgt id='1515'> +8.2036015e+04 </wgt>
<wgt id='1516'> +8.1238609e+04 </wgt>
<wgt id='1517'> +8.0780051e+04 </wgt>
<wgt id='1518'> +8.2172511e+04 </wgt>
<wgt id='1519'> +8.1911245e+04 </wgt>
<wgt id='1520'> +8.0984545e+04 </wgt>
<wgt id='1521'> +8.1418399e+04 </wgt>
<wgt id='1522'> +8.1743080e+04 </wgt>
<wgt id='1523'> +8.2841069e+04 </wgt>
<wgt id='1524'> +8.1439422e+04 </wgt>
<wgt id='1525'> +8.1081658e+04 </wgt>
<wgt id='1526'> +8.0139430e+04 </wgt>
<wgt id='1527'> +8.2272279e+04 </wgt>
<wgt id='1528'> +8.1846455e+04 </wgt>
<wgt id='1529'> +8.2434470e+04 </wgt>
<wgt id='1530'> +8.2299661e+04 </wgt>
<wgt id='1531'> +8.2388501e+04 </wgt>
<wgt id='1532'> +8.2952745e+04 </wgt>
<wgt id='1533'> +8.2938120e+04 </wgt>
<wgt id='1534'> +8.2301365e+04 </wgt>
<wgt id='1535'> +8.2612370e+04 </wgt>
<wgt id='1536'> +8.1061864e+04 </wgt>
<wgt id='1537'> +8.0991260e+04 </wgt>
<wgt id='1538'> +8.1700417e+04 </wgt>
<wgt id='1539'> +8.2293044e+04 </wgt>
<wgt id='1540'> +8.3389365e+04 </wgt>
<wgt id='1541'> +8.3166794e+04 </wgt>
<wgt id='1542'> +8.3015202e+04 </wgt>
<wgt id='1543'> +8.1610667e+04 </wgt>
<wgt id='1544'> +8.2049868e+04 </wgt>
<wgt id='1545'> +8.0691228e+04 </wgt>
<wgt id='1546'> +8.1743462e+04 </wgt>
<wgt id='1547'> +8.1314450e+04 </wgt>
<wgt id='1548'> +8.2210088e+04 </wgt>
<wgt id='1549'> +8.3024424e+04 </wgt>
<wgt id='1550'> +8.2734167e+04 </wgt>
<wgt id='1551'> +8.2770560e+04 </wgt>
<wgt id='1552'> +8.0492407e+04 </wgt>
<wgt id='1553'> +8.2933047e+04 </wgt>
<wgt id='1554'> +8.1114614e+04 </wgt>
<wgt id='1555'> +8.2039974e+04 </wgt>
<wgt id='1556'> +8.0757824e+04 </wgt>
<wgt id='1557'> +8.1963446e+04 </wgt>
<wgt id='1558'> +8.1753404e+04 </wgt>
<wgt id='1559'> +8.1691822e+04 </wgt>
<wgt id='1560'> +8.0590399e+04 </wgt>
<wgt id='1561'> +8.2074097e+04 </wgt>
<wgt id='1562'> +8.2884819e+04 </wgt>
<wgt id='1563'> +8.2169325e+04 </wgt>
<wgt id='1564'> +8.1317813e+04 </wgt>
<wgt id='1565'> +8.1907587e+04 </wgt>
<wgt id='1566'> +8.3504600e+04 </wgt>
<wgt id='1567'> +8.2376591e+04 </wgt>
<wgt id='1568'> +8.1612199e+04 </wgt>
<wgt id='1569'> +8.1792947e+04 </wgt>
<wgt id='1570'> +8.1071757e+04 </wgt>
<wgt id='1571'> +8.2631374e+04 </wgt>
<wgt id='1572'> +8.2354055e+04 </wgt>
<wgt id='1573'> +8.1969207e+04 </wgt>
<wgt id='1574'> +8.3401049e+04 </wgt>
<wgt id='1575'> +8.0028110e+04 </wgt>
<wgt id='1576'> +8.1671112e+04 </wgt>
<wgt id='1577'> +8.0664064e+04 </wgt>
<wgt id='1578'> +7.9104138e+04 </wgt>
<wgt id='1579'> +8.2408689e+04 </wgt>
<wgt id='1580'> +8.1315908e+04 </wgt>
<wgt id='1581'> +8.1216369e+04 </wgt>
<wgt id='1582'> +8.1104858e+04 </wgt>
<wgt id='1583'> +8.0657328e+04 </wgt>
<wgt id='1584'> +8.2550138e+04 </wgt>
<wgt id='1585'> +7.3282726e+04 </wgt>
<wgt id='1586'> +5.9637697e+04 </wgt>
<wgt id='1587'> +7.3810173e+04 </wgt>
<wgt id='1588'> +7.5176094e+04 </wgt>
<wgt id='1589'> +7.6246864e+04 </wgt>
<wgt id='1590'> +7.7466453e+04 </wgt>
<wgt id='1591'> +7.8756234e+04 </wgt>
<wgt id='1592'> +8.0315903e+04 </wgt>
<wgt id='1593'> +8.5535189e+04 </wgt>
<wgt id='1594'> +8.4842187e+04 </wgt>
<wgt id='1595'> +8.5919650e+04 </wgt>
<wgt id='1596'> +8.8419741e+04 </wgt>
<wgt id='1597'> +8.2446307e+04 </wgt>
<wgt id='1598'> +8.9345355e+04 </wgt>
<wgt id='1599'> +8.3600784e+04 </wgt>
<wgt id='1600'> +8.9438081e+04 </wgt>
<wgt id='1601'> +8.2375720e+04 </wgt>
<wgt id='1602'> +8.6568849e+04 </wgt>
<wgt id='1603'> +8.4906660e+04 </wgt>
<wgt id='1604'> +8.4826031e+04 </wgt>
<wgt id='1605'> +8.7178304e+04 </wgt>
<wgt id='1606'> +8.5265592e+04 </wgt>
<wgt id='1607'> +8.5435217e+04 </wgt>
<wgt id='1608'> +8.7562821e+04 </wgt>
<wgt id='1609'> +8.3323862e+04 </wgt>
<wgt id='1610'> +8.5825450e+04 </wgt>
<wgt id='1611'> +8.5230040e+04 </wgt>
<wgt id='1612'> +8.5644980e+04 </wgt>
<wgt id='1613'> +8.5044535e+04 </wgt>
<wgt id='1614'> +8.4628610e+04 </wgt>
<wgt id='1615'> +8.7244523e+04 </wgt>
<wgt id='1616'> +8.6773511e+04 </wgt>
<wgt id='1617'> +8.3657974e+04 </wgt>
<wgt id='1618'> +8.5426044e+04 </wgt>
<wgt id='1619'> +8.5985685e+04 </wgt>
<wgt id='1620'> +8.3255498e+04 </wgt>
<wgt id='1621'> +8.8650170e+04 </wgt>
<wgt id='1622'> +8.4089880e+04 </wgt>
<wgt id='1623'> +8.6251004e+04 </wgt>
<wgt id='1624'> +8.5008232e+04 </wgt>
<wgt id='1625'> +8.5075579e+04 </wgt>
<wgt id='1626'> +8.5389322e+04 </wgt>
<wgt id='1627'> +8.5092223e+04 </wgt>
<wgt id='1628'> +8.3077891e+04 </wgt>
<wgt id='1629'> +8.8876194e+04 </wgt>
<wgt id='1630'> +8.3683197e+04 </wgt>
<wgt id='1631'> +8.8000589e+04 </wgt>
<wgt id='1632'> +8.3716812e+04 </wgt>
<wgt id='1633'> +8.8916640e+04 </wgt>
<wgt id='1634'> +8.5955637e+04 </wgt>
<wgt id='1635'> +8.5258418e+04 </wgt>
<wgt id='1636'> +9.0080151e+04 </wgt>
<wgt id='1637'> +8.3360181e+04 </wgt>
<wgt id='1638'> +8.4900339e+04 </wgt>
<wgt id='1639'> +8.6243757e+04 </wgt>
<wgt id='1640'> +8.2936997e+04 </wgt>
<wgt id='1641'> +8.7519678e+04 </wgt>
<wgt id='1642'> +8.9936187e+04 </wgt>
<wgt id='1643'> +8.2879508e+04 </wgt>
<wgt id='1644'> +8.4614203e+04 </wgt>
<wgt id='1645'> +8.7396095e+04 </wgt>
<wgt id='1646'> +8.9160641e+04 </wgt>
<wgt id='1647'> +8.3214162e+04 </wgt>
<wgt id='1648'> +8.5953030e+04 </wgt>
<wgt id='1649'> +8.5287751e+04 </wgt>
<wgt id='1650'> +8.5797326e+04 </wgt>
<wgt id='1651'> +8.4765708e+04 </wgt>
<wgt id='1652'> +8.1742785e+04 </wgt>
<wgt id='1653'> +8.3682655e+04 </wgt>
<wgt id='1654'> +8.7304133e+04 </wgt>
<wgt id='1655'> +8.9011924e+04 </wgt>
<wgt id='1656'> +8.5842239e+04 </wgt>
<wgt id='1657'> +8.5956636e+04 </wgt>
<wgt id='1658'> +8.5327589e+04 </wgt>
<wgt id='1659'> +8.5912685e+04 </wgt>
<wgt id='1660'> +8.5762802e+04 </wgt>
<wgt id='1661'> +8.5893413e+04 </wgt>
<wgt id='1662'> +8.5346022e+04 </wgt>
<wgt id='1663'> +8.6101979e+04 </wgt>
<wgt id='1664'> +8.5081225e+04 </wgt>
<wgt id='1665'> +8.4913528e+04 </wgt>
<wgt id='1666'> +8.6152434e+04 </wgt>
<wgt id='1667'> +8.7468060e+04 </wgt>
<wgt id='1668'> +8.4632580e+04 </wgt>
<wgt id='1669'> +8.6821177e+04 </wgt>
<wgt id='1670'> +8.4838943e+04 </wgt>
<wgt id='1671'> +8.5288082e+04 </wgt>
<wgt id='1672'> +8.6605019e+04 </wgt>
<wgt id='1673'> +8.5015417e+04 </wgt>
<wgt id='1674'> +8.6529036e+04 </wgt>
<wgt id='1675'> +8.4212781e+04 </wgt>
<wgt id='1676'> +8.7342141e+04 </wgt>
<wgt id='1677'> +8.6627643e+04 </wgt>
<wgt id='1678'> +8.5020361e+04 </wgt>
<wgt id='1679'> +8.5015398e+04 </wgt>
<wgt id='1680'> +8.7764906e+04 </wgt>
<wgt id='1681'> +8.4998763e+04 </wgt>
<wgt id='1682'> +8.6089327e+04 </wgt>
<wgt id='1683'> +8.4636935e+04 </wgt>
<wgt id='1684'> +8.7039833e+04 </wgt>
<wgt id='1685'> +8.4638004e+04 </wgt>
<wgt id='1686'> +8.7060892e+04 </wgt>
<wgt id='1687'> +8.4308207e+04 </wgt>
<wgt id='1688'> +8.7981775e+04 </wgt>
<wgt id='1689'> +8.4749381e+04 </wgt>
<wgt id='1690'> +8.7194412e+04 </wgt>
<wgt id='1691'> +8.4560631e+04 </wgt>
<wgt id='1692'> +8.7241265e+04 </wgt>
<wgt id='1693'> +8.2583748e+04 </wgt>
<wgt id='1694'> +9.1135827e+04 </wgt>
<wgt id='1695'> +8.6437905e+04 </wgt>
<wgt id='1696'> +8.4671787e+04 </wgt>
<wgt id='1697'> +8.4476500e+04 </wgt>
<wgt id='1698'> +8.7601028e+04 </wgt>
<wgt id='1699'> +8.7552366e+04 </wgt>
<wgt id='1700'> +8.3219614e+04 </wgt>
<wgt id='1701'> +8.8432264e+04 </wgt>
<wgt id='1702'> +8.4390347e+04 </wgt>
<wgt id='1703'> +8.6843422e+04 </wgt>
<wgt id='1704'> +8.5201015e+04 </wgt>
<wgt id='1705'> +8.4746580e+04 </wgt>
<wgt id='1706'> +8.7251727e+04 </wgt>
<wgt id='1707'> +8.3853760e+04 </wgt>
<wgt id='1708'> +8.7121222e+04 </wgt>
<wgt id='1709'> +8.7324783e+04 </wgt>
<wgt id='1710'> +8.4797729e+04 </wgt>
<wgt id='1711'> +8.7414319e+04 </wgt>
<wgt id='1712'> +8.4455880e+04 </wgt>
<wgt id='1713'> +8.5103915e+04 </wgt>
<wgt id='1714'> +8.5613050e+04 </wgt>
<wgt id='1715'> +8.7588491e+04 </wgt>
<wgt id='1716'> +8.6497678e+04 </wgt>
<wgt id='1717'> +8.4987432e+04 </wgt>
<wgt id='1718'> +8.4919281e+04 </wgt>
<wgt id='1719'> +8.5074613e+04 </wgt>
<wgt id='1720'> +8.5042362e+04 </wgt>
<wgt id='1721'> +8.4937265e+04 </wgt>
<wgt id='1722'> +8.5383444e+04 </wgt>
<wgt id='1723'> +8.4339074e+04 </wgt>
<wgt id='1724'> +8.5450126e+04 </wgt>
<wgt id='1725'> +8.4611737e+04 </wgt>
<wgt id='1726'> +8.5301393e+04 </wgt>
<wgt id='1727'> +8.4664005e+04 </wgt>
<wgt id='1728'> +8.6404695e+04 </wgt>
<wgt id='1729'> +8.3617822e+04 </wgt>
<wgt id='1730'> +8.3776076e+04 </wgt>
<wgt id='1731'> +8.5849539e+04 </wgt>
<wgt id='1732'> +8.4121618e+04 </wgt>
<wgt id='1733'> +8.4121618e+04 </wgt>
<wgt id='1734'> +8.5957861e+04 </wgt>
<wgt id='1735'> +8.4334005e+04 </wgt>
<wgt id='1736'> +8.5792963e+04 </wgt>
<wgt id='1737'> +8.3879762e+04 </wgt>
<wgt id='1738'> +8.3854568e+04 </wgt>
<wgt id='1739'> +8.6954451e+04 </wgt>
<wgt id='1740'> +8.5008665e+04 </wgt>
<wgt id='1741'> +8.4944556e+04 </wgt>
<wgt id='1742'> +8.4991357e+04 </wgt>
<wgt id='1743'> +8.5010395e+04 </wgt>
<wgt id='1744'> +8.5139632e+04 </wgt>
<wgt id='1745'> +8.4576620e+04 </wgt>
<wgt id='1746'> +8.3862975e+04 </wgt>
<wgt id='1747'> +8.5658939e+04 </wgt>
<wgt id='1748'> +8.5156131e+04 </wgt>
<wgt id='1749'> +8.4458329e+04 </wgt>
<wgt id='1750'> +8.4702438e+04 </wgt>
<wgt id='1751'> +8.5295620e+04 </wgt>
<wgt id='1752'> +8.5318168e+04 </wgt>
<wgt id='1753'> +8.4541967e+04 </wgt>
<wgt id='1754'> +8.4686449e+04 </wgt>
<wgt id='1755'> +8.5159101e+04 </wgt>
<wgt id='1756'> +8.4522368e+04 </wgt>
<wgt id='1757'> +8.6235498e+04 </wgt>
<wgt id='1758'> +8.4312613e+04 </wgt>
<wgt id='1759'> +8.5498717e+04 </wgt>
<wgt id='1760'> +8.5199193e+04 </wgt>
<wgt id='1761'> +8.4936645e+04 </wgt>
<wgt id='1762'> +8.4219145e+04 </wgt>
<wgt id='1763'> +8.6755441e+04 </wgt>
<wgt id='1764'> +8.5041579e+04 </wgt>
<wgt id='1765'> +8.4758844e+04 </wgt>
<wgt id='1766'> +8.5054282e+04 </wgt>
<wgt id='1767'> +8.4998000e+04 </wgt>
<wgt id='1768'> +8.4752757e+04 </wgt>
<wgt id='1769'> +8.5215417e+04 </wgt>
<wgt id='1770'> +8.5376969e+04 </wgt>
<wgt id='1771'> +8.4771105e+04 </wgt>
<wgt id='1772'> +8.4823316e+04 </wgt>
<wgt id='1773'> +8.5613786e+04 </wgt>
<wgt id='1774'> +8.5450894e+04 </wgt>
<wgt id='1775'> +8.4662349e+04 </wgt>
<wgt id='1776'> +8.5102574e+04 </wgt>
<wgt id='1777'> +8.4970275e+04 </wgt>
<wgt id='1778'> +8.4797436e+04 </wgt>
<wgt id='1779'> +8.5238220e+04 </wgt>
<wgt id='1780'> +8.4216547e+04 </wgt>
<wgt id='1781'> +8.5318961e+04 </wgt>
<wgt id='1782'> +8.4987432e+04 </wgt>
<wgt id='1783'> +8.5013977e+04 </wgt>
<wgt id='1784'> +8.2339702e+04 </wgt>
<wgt id='1785'> +8.1301506e+04 </wgt>
<wgt id='1786'> +8.4982392e+04 </wgt>
<wgt id='1787'> +8.2141530e+04 </wgt>
<wgt id='1788'> +8.3805549e+04 </wgt>
<wgt id='1789'> +8.1992042e+04 </wgt>
<wgt id='1790'> +8.1667154e+04 </wgt>
<wgt id='1791'> +8.1688257e+04 </wgt>
<wgt id='1792'> +8.2872726e+04 </wgt>
<wgt id='1793'> +8.1466816e+04 </wgt>
<wgt id='1794'> +8.2268860e+04 </wgt>
<wgt id='1795'> +8.3325683e+04 </wgt>
<wgt id='1796'> +8.2507837e+04 </wgt>
<wgt id='1797'> +8.5056076e+04 </wgt>
<wgt id='1798'> +8.1712271e+04 </wgt>
<wgt id='1799'> +8.2279337e+04 </wgt>
<wgt id='1800'> +8.2307464e+04 </wgt>
<wgt id='1801'> +8.0881650e+04 </wgt>
<wgt id='1802'> +8.0707637e+04 </wgt>
<wgt id='1803'> +8.2267421e+04 </wgt>
<wgt id='1804'> +8.1949976e+04 </wgt>
<wgt id='1805'> +8.2411853e+04 </wgt>
<wgt id='1806'> +8.1876680e+04 </wgt>
<wgt id='1807'> +8.1984921e+04 </wgt>
<wgt id='1808'> +8.2278987e+04 </wgt>
<wgt id='1809'> +8.2439371e+04 </wgt>
<wgt id='1810'> +8.2153210e+04 </wgt>
<wgt id='1811'> +8.2451682e+04 </wgt>
<wgt id='1812'> +8.1789727e+04 </wgt>
<wgt id='1813'> +8.1748460e+04 </wgt>
<wgt id='1814'> +8.1664183e+04 </wgt>
<wgt id='1815'> +8.2371426e+04 </wgt>
<wgt id='1816'> +8.2006989e+04 </wgt>
<wgt id='1817'> +8.1370539e+04 </wgt>
<wgt id='1818'> +8.2347720e+04 </wgt>
<wgt id='1819'> +8.2255238e+04 </wgt>
<wgt id='1820'> +8.1889363e+04 </wgt>
<wgt id='1821'> +8.2188316e+04 </wgt>
<wgt id='1822'> +8.1768628e+04 </wgt>
<wgt id='1823'> +8.1858350e+04 </wgt>
<wgt id='1824'> +8.1694732e+04 </wgt>
<wgt id='1825'> +8.0496565e+04 </wgt>
<wgt id='1826'> +8.4027383e+04 </wgt>
<wgt id='1827'> +8.4429665e+04 </wgt>
<wgt id='1828'> +8.4399066e+04 </wgt>
<wgt id='1829'> +8.4442790e+04 </wgt>
<wgt id='1830'> +8.4588972e+04 </wgt>
<wgt id='1831'> +8.4252867e+04 </wgt>
<wgt id='1832'> +8.4640781e+04 </wgt>
<wgt id='1833'> +8.4201684e+04 </wgt>
<wgt id='1834'> +8.4796584e+04 </wgt>
<wgt id='1835'> +8.4045931e+04 </wgt>
<wgt id='1836'> +8.4234949e+04 </wgt>
<wgt id='1837'> +8.4604673e+04 </wgt>
<wgt id='1838'> +8.4772790e+04 </wgt>
<wgt id='1839'> +8.4071645e+04 </wgt>
<wgt id='1840'> +8.4205356e+04 </wgt>
<wgt id='1841'> +8.4640879e+04 </wgt>
<wgt id='1842'> +8.4466924e+04 </wgt>
<wgt id='1843'> +8.4479861e+04 </wgt>
<wgt id='1844'> +8.4412169e+04 </wgt>
<wgt id='1845'> +8.4413221e+04 </wgt>
<wgt id='1846'> +8.4364230e+04 </wgt>
<wgt id='1847'> +8.4475711e+04 </wgt>
<wgt id='1848'> +8.4141717e+04 </wgt>
<wgt id='1849'> +8.4557082e+04 </wgt>
<wgt id='1850'> +8.4010089e+04 </wgt>
<wgt id='1851'> +8.4805117e+04 </wgt>
<wgt id='1852'> +8.3419798e+04 </wgt>
<wgt id='1853'> +8.5134203e+04 </wgt>
<wgt id='1854'> +8.4125318e+04 </wgt>
<wgt id='1855'> +8.4855398e+04 </wgt>
<wgt id='1856'> +8.9109729e+04 </wgt>
<wgt id='1857'> +8.9083811e+04 </wgt>
<wgt id='1858'> +8.9129272e+04 </wgt>
<wgt id='1859'> +8.9070868e+04 </wgt>
<wgt id='1860'> +8.9110361e+04 </wgt>
<wgt id='1861'> +8.9130130e+04 </wgt>
<wgt id='1862'> +8.9366232e+04 </wgt>
<wgt id='1863'> +8.8773591e+04 </wgt>
<wgt id='1864'> +8.9378179e+04 </wgt>
<wgt id='1865'> +8.9534364e+04 </wgt>
<wgt id='1866'> +8.9247138e+04 </wgt>
<wgt id='1867'> +8.9198000e+04 </wgt>
<wgt id='1868'> +8.9593618e+04 </wgt>
<wgt id='1869'> +8.8640555e+04 </wgt>
<wgt id='1870'> +8.9602839e+04 </wgt>
<wgt id='1871'> +8.8968963e+04 </wgt>
<wgt id='1872'> +8.9443550e+04 </wgt>
<wgt id='1873'> +8.9173993e+04 </wgt>
<wgt id='1874'> +8.9222941e+04 </wgt>
<wgt id='1875'> +8.9041957e+04 </wgt>
<wgt id='1876'> +8.8962665e+04 </wgt>
<wgt id='1877'> +8.9801610e+04 </wgt>
<wgt id='1878'> +8.8818258e+04 </wgt>
<wgt id='1879'> +8.9226241e+04 </wgt>
<wgt id='1880'> +8.9159403e+04 </wgt>
<wgt id='1881'> +8.9601081e+04 </wgt>
<wgt id='1882'> +8.9187388e+04 </wgt>
<wgt id='1883'> +8.8928173e+04 </wgt>
<wgt id='1884'> +8.9394468e+04 </wgt>
<wgt id='1885'> +8.8437560e+04 </wgt>
<wgt id='1886'> +4.7443936e+04 </wgt>
<wgt id='1887'> +6.5289318e+04 </wgt>
<wgt id='1888'> +7.3970876e+04 </wgt>
<wgt id='1889'> +8.4839764e+04 </wgt>
</rwgt>
</event>
<event npLO=" -1 " npNLO=" 0 ">
 5      0 -7.4519530e+04 2.03423860e+01 7.55820760e-03 1.19846920e-01
        4 -1    0    0  501    0 +0.0000000000e+00 +0.0000000000e+00 +3.8476159413e+01 3.8476159413e+01 0.0000000000e+00 0.0000e+00 -1.0000e+00
       -1 -1    0    0    0  501 +0.0000000000e+00 +0.0000000000e+00 -4.4015374051e+01 4.4015374051e+01 0.0000000000e+00 0.0000e+00 1.0000e+00
       24  2    1    2    0    0 +0.0000000000e+00 +0.0000000000e+00 -5.5392146375e+00 8.2491533464e+01 8.2305347301e+01 0.0000e+00 0.0000e+00
      -13  1    3    3    0    0 -2.9924368354e+01 +1.8702467929e+01 -2.3990420555e+01 4.2670720716e+01 0.0000000000e+00 0.0000e+00 1.0000e+00
       14  1    3    3    0    0 +2.9924368354e+01 -1.8702467929e+01 +1.8451205918e+01 3.9820812747e+01 0.0000000000e+00 0.0000e+00 -1.0000e+00
#aMCatNLO 1  0  0  1  2 0.35046741E+01 0.00000000E+00 -9  5  0 0.00000000E+00 0.00000000E+00 0.00000000E+00 0.00000000E+00 0.00000000E+00
<rwgt>
<wgt id='1001'> -7.4519530e+04 </wgt>
<wgt id='1002'> -6.1213107e+04 </wgt>
<wgt id='1003'> -9.1086604e+04 </wgt>
<wgt id='1004'> -1.1086724e+05 </wgt>
<wgt id='1005'> -9.3073287e+04 </wgt>
<wgt id='1006'> -1.3302134e+05 </wgt>
<wgt id='1007'> -4.0570167e+04 </wgt>
<wgt id='1008'> -3.1588655e+04 </wgt>
<wgt id='1009'> -5.1752775e+04 </wgt>
<wgt id='1010'> -7.4519530e+04 </wgt>
<wgt id='1011'> -7.4332762e+04 </wgt>
<wgt id='1012'> -7.4312312e+04 </wgt>
<wgt id='1013'> -7.4156374e+04 </wgt>
<wgt id='1014'> -7.4767703e+04 </wgt>
<wgt id='1015'> -7.4427693e+04 </wgt>
<wgt id='1016'> -7.4725494e+04 </wgt>
<wgt id='1017'> -7.4858075e+04 </wgt>
<wgt id='1018'> -7.4812965e+04 </wgt>
<wgt id='1019'> -7.4832660e+04 </wgt>
<wgt id='1020'> -7.4205568e+04 </wgt>
<wgt id='1021'> -7.4213444e+04 </wgt>
<wgt id='1022'> -7.4791283e+04 </wgt>
<wgt id='1023'> -7.5051473e+04 </wgt>
<wgt id='1024'> -7.4951679e+04 </wgt>
<wgt id='1025'> -7.5235427e+04 </wgt>
<wgt id='1026'> -7.4518766e+04 </wgt>
<wgt id='1027'> -7.4542457e+04 </wgt>
<wgt id='1028'> -7.3504304e+04 </wgt>
<wgt id='1029'> -7.4301744e+04 </wgt>
<wgt id='1030'> -7.5164008e+04 </wgt>
<wgt id='1031'> -7.4173656e+04 </wgt>
<wgt id='1032'> -7.4888346e+04 </wgt>
<wgt id='1033'> -7.3880516e+04 </wgt>
<wgt id='1034'> -7.4049219e+04 </wgt>
<wgt id='1035'> -7.4444511e+04 </wgt>
<wgt id='1036'> -7.3810944e+04 </wgt>
<wgt id='1037'> -7.5885505e+04 </wgt>
<wgt id='1038'> -7.4990895e+04 </wgt>
<wgt id='1039'> -7.4306562e+04 </wgt>
<wgt id='1040'> -7.4859877e+04 </wgt>
<wgt id='1041'> -7.4983600e+04 </wgt>
<wgt id='1042'> -7.4299615e+04 </wgt>
<wgt id='1043'> -7.3997862e+04 </wgt>
<wgt id='1044'> -7.4524671e+04 </wgt>
<wgt id='1045'> -7.4455759e+04 </wgt>
<wgt id='1046'> -7.4604557e+04 </wgt>
<wgt id='1047'> -7.5019972e+04 </wgt>
<wgt id='1048'> -7.5175509e+04 </wgt>
<wgt id='1049'> -7.4567439e+04 </wgt>
<wgt id='1050'> -7.5050465e+04 </wgt>
<wgt id='1051'> -7.4881006e+04 </wgt>
<wgt id='1052'> -7.5047395e+04 </wgt>
<wgt id='1053'> -7.4129727e+04 </wgt>
<wgt id='1054'> -7.4609764e+04 </wgt>
<wgt id='1055'> -7.4900198e+04 </wgt>
<wgt id='1056'> -7.4413091e+04 </wgt>
<wgt id='1057'> -7.4509003e+04 </wgt>
<wgt id='1058'> -7.4564497e+04 </wgt>
<wgt id='1059'> -7.4264616e+04 </wgt>
<wgt id='1060'> -7.3865245e+04 </wgt>
<wgt id='1061'> -7.4631704e+04 </wgt>
<wgt id='1062'> -7.4441328e+04 </wgt>
<wgt id='1063'> -7.4297818e+04 </wgt>
<wgt id='1064'> -7.4103831e+04 </wgt>
<wgt id='1065'> -7.4645872e+04 </wgt>
<wgt id='1066'> -7.4765197e+04 </wgt>
<wgt id='1067'> -7.4671116e+04 </wgt>
<wgt id='1068'> -7.4217796e+04 </wgt>
<wgt id='1069'> -7.5052707e+04 </wgt>
<wgt id='1070'> -7.4523799e+04 </wgt>
<wgt id='1071'> -7.4353320e+04 </wgt>
<wgt id='1072'> -7.5074995e+04 </wgt>
<wgt id='1073'> -7.4634963e+04 </wgt>
<wgt id='1074'> -7.4390330e+04 </wgt>
<wgt id='1075'> -7.4708218e+04 </wgt>
<wgt id='1076'> -7.4423110e+04 </wgt>
<wgt id='1077'> -7.4931267e+04 </wgt>
<wgt id='1078'> -7.4451691e+04 </wgt>
<wgt id='1079'> -7.4665854e+04 </wgt>
<wgt id='1080'> -7.4674521e+04 </wgt>
<wgt id='1081'> -7.4704912e+04 </wgt>
<wgt id='1082'> -7.4509488e+04 </wgt>
<wgt id='1083'> -7.4789833e+04 </wgt>
<wgt id='1084'> -7.4642068e+04 </wgt>
<wgt id='1085'> -7.4608730e+04 </wgt>
<wgt id='1086'> -7.4565542e+04 </wgt>
<wgt id='1087'> -7.4268577e+04 </wgt>
<wgt id='1088'> -7.4672116e+04 </wgt>
<wgt id='1089'> -7.4536054e+04 </wgt>
<wgt id='1090'> -7.4399588e+04 </wgt>
<wgt id='1091'> -7.4659016e+04 </wgt>
<wgt id='1092'> -7.4686234e+04 </wgt>
<wgt id='1093'> -7.4714290e+04 </wgt>
<wgt id='1094'> -7.4648083e+04 </wgt>
<wgt id='1095'> -7.4360373e+04 </wgt>
<wgt id='1096'> -7.4425755e+04 </wgt>
<wgt id='1097'> -7.4619287e+04 </wgt>
<wgt id='1098'> -7.4368252e+04 </wgt>
<wgt id='1099'> -7.4433666e+04 </wgt>
<wgt id='1100'> -7.4391354e+04 </wgt>
<wgt id='1101'> -7.4456595e+04 </wgt>
<wgt id='1102'> -7.4531489e+04 </wgt>
<wgt id='1103'> -7.4460616e+04 </wgt>
<wgt id='1104'> -7.4634229e+04 </wgt>
<wgt id='1105'> -7.4599846e+04 </wgt>
<wgt id='1106'> -7.4644393e+04 </wgt>
<wgt id='1107'> -7.4452688e+04 </wgt>
<wgt id='1108'> -7.4428234e+04 </wgt>
<wgt id='1109'> -7.4653399e+04 </wgt>
<wgt id='1110'> -7.4519504e+04 </wgt>
<wgt id='1111'> -7.7136461e+04 </wgt>
<wgt id='1112'> -7.1877899e+04 </wgt>
<wgt id='1113'> -7.4519504e+04 </wgt>
<wgt id='1114'> -7.8047404e+04 </wgt>
<wgt id='1115'> -7.1613149e+04 </wgt>
<wgt id='1116'> -6.7877508e+04 </wgt>
<wgt id='1117'> -7.4670990e+04 </wgt>
<wgt id='1118'> -7.4202586e+04 </wgt>
<wgt id='1119'> -8.4036087e+04 </wgt>
<wgt id='1120'> -7.2227034e+04 </wgt>
<wgt id='1121'> -6.8160660e+04 </wgt>
<wgt id='1122'> -6.9866528e+04 </wgt>
<wgt id='1123'> -7.2518824e+04 </wgt>
<wgt id='1124'> -7.8216239e+04 </wgt>
<wgt id='1125'> -7.1509041e+04 </wgt>
<wgt id='1126'> -7.3777123e+04 </wgt>
<wgt id='1127'> -7.4481312e+04 </wgt>
<wgt id='1128'> -7.5348545e+04 </wgt>
<wgt id='1129'> -7.7403437e+04 </wgt>
<wgt id='1130'> -7.2552693e+04 </wgt>
<wgt id='1131'> -7.5015016e+04 </wgt>
<wgt id='1132'> -7.6015829e+04 </wgt>
<wgt id='1133'> -7.0349292e+04 </wgt>
<wgt id='1134'> -6.6321554e+04 </wgt>
<wgt id='1135'> -7.7360483e+04 </wgt>
<wgt id='1136'> -7.5385295e+04 </wgt>
<wgt id='1137'> -7.2464996e+04 </wgt>
<wgt id='1138'> -7.0090298e+04 </wgt>
<wgt id='1139'> -6.9956265e+04 </wgt>
<wgt id='1140'> -7.7294866e+04 </wgt>
<wgt id='1141'> -7.4070573e+04 </wgt>
<wgt id='1142'> -7.5984439e+04 </wgt>
<wgt id='1143'> -7.6606661e+04 </wgt>
<wgt id='1144'> -7.4608054e+04 </wgt>
<wgt id='1145'> -7.3117402e+04 </wgt>
<wgt id='1146'> -7.9059079e+04 </wgt>
<wgt id='1147'> -7.2574516e+04 </wgt>
<wgt id='1148'> -7.7183963e+04 </wgt>
<wgt id='1149'> -7.5370393e+04 </wgt>
<wgt id='1150'> -7.4889802e+04 </wgt>
<wgt id='1151'> -7.4162406e+04 </wgt>
<wgt id='1152'> -7.4733015e+04 </wgt>
<wgt id='1153'> -7.5473704e+04 </wgt>
<wgt id='1154'> -7.8351928e+04 </wgt>
<wgt id='1155'> -7.9022499e+04 </wgt>
<wgt id='1156'> -7.7514113e+04 </wgt>
<wgt id='1157'> -7.7369069e+04 </wgt>
<wgt id='1158'> -7.6255845e+04 </wgt>
<wgt id='1159'> -7.8605832e+04 </wgt>
<wgt id='1160'> -8.3112590e+04 </wgt>
<wgt id='1161'> -7.0828353e+04 </wgt>
<wgt id='1162'> -7.9249728e+04 </wgt>
<wgt id='1163'> -7.5852997e+04 </wgt>
<wgt id='1164'> -7.1802671e+04 </wgt>
<wgt id='1165'> -6.8315455e+04 </wgt>
<wgt id='1166'> -7.5263842e+04 </wgt>
<wgt id='1167'> -7.5009267e+04 </wgt>
<wgt id='1168'> -7.4196545e+04 </wgt>
<wgt id='1169'> -7.5739951e+04 </wgt>
<wgt id='1170'> -7.7661999e+04 </wgt>
<wgt id='1171'> -7.2352983e+04 </wgt>
<wgt id='1172'> -7.5836132e+04 </wgt>
<wgt id='1173'> -7.3896266e+04 </wgt>
<wgt id='1174'> -7.6279618e+04 </wgt>
<wgt id='1175'> -7.2876014e+04 </wgt>
<wgt id='1176'> -7.5062969e+04 </wgt>
<wgt id='1177'> -7.1237187e+04 </wgt>
<wgt id='1178'> -7.8427346e+04 </wgt>
<wgt id='1179'> -8.0900345e+04 </wgt>
<wgt id='1180'> -7.6270901e+04 </wgt>
<wgt id='1181'> -7.4866015e+04 </wgt>
<wgt id='1182'> -7.4676472e+04 </wgt>
<wgt id='1183'> -6.7784661e+04 </wgt>
<wgt id='1184'> -7.1965053e+04 </wgt>
<wgt id='1185'> -7.5977360e+04 </wgt>
<wgt id='1186'> -6.9672559e+04 </wgt>
<wgt id='1187'> -7.0749222e+04 </wgt>
<wgt id='1188'> -7.6763431e+04 </wgt>
<wgt id='1189'> -8.3202677e+04 </wgt>
<wgt id='1190'> -6.9076723e+04 </wgt>
<wgt id='1191'> -7.5698096e+04 </wgt>
<wgt id='1192'> -7.4520756e+04 </wgt>
<wgt id='1193'> -7.7337612e+04 </wgt>
<wgt id='1194'> -7.4044197e+04 </wgt>
<wgt id='1195'> -7.7403437e+04 </wgt>
<wgt id='1196'> -7.6435518e+04 </wgt>
<wgt id='1197'> -7.1444235e+04 </wgt>
<wgt id='1198'> -7.3287990e+04 </wgt>
<wgt id='1199'> -7.9136024e+04 </wgt>
<wgt id='1200'> -7.7627667e+04 </wgt>
<wgt id='1201'> -7.6638581e+04 </wgt>
<wgt id='1202'> -6.8820377e+04 </wgt>
<wgt id='1203'> -7.3322692e+04 </wgt>
<wgt id='1204'> -7.4626948e+04 </wgt>
<wgt id='1205'> -7.2627876e+04 </wgt>
<wgt id='1206'> -7.4534846e+04 </wgt>
<wgt id='1207'> -7.4039586e+04 </wgt>
<wgt id='1208'> -7.0809617e+04 </wgt>
<wgt id='1209'> -7.5012813e+04 </wgt>
<wgt id='1210'> -7.7139169e+04 </wgt>
<wgt id='1211'> -7.0856827e+04 </wgt>
<wgt id='1212'> -7.0107318e+04 </wgt>
<wgt id='1213'> -7.1224011e+04 </wgt>
<wgt id='1214'> -7.4463776e+04 </wgt>
<wgt id='1215'> -8.8764413e+04 </wgt>
<wgt id='1216'> -8.5245506e+04 </wgt>
<wgt id='1217'> -8.2540661e+04 </wgt>
<wgt id='1218'> -8.0214878e+04 </wgt>
<wgt id='1219'> -7.6070719e+04 </wgt>
<wgt id='1220'> -7.3336434e+04 </wgt>
<wgt id='1221'> -6.8531925e+04 </wgt>
<wgt id='1222'> -6.5415590e+04 </wgt>
<wgt id='1223'> -7.9838976e+04 </wgt>
<wgt id='1224'> -7.9921711e+04 </wgt>
<wgt id='1225'> -8.0012710e+04 </wgt>
<wgt id='1226'> -7.9748466e+04 </wgt>
<wgt id='1227'> -8.0536386e+04 </wgt>
<wgt id='1228'> -7.9993162e+04 </wgt>
<wgt id='1229'> -7.9497211e+04 </wgt>
<wgt id='1230'> -8.0526953e+04 </wgt>
<wgt id='1231'> -8.0160170e+04 </wgt>
<wgt id='1232'> -8.0851001e+04 </wgt>
<wgt id='1233'> -7.9192523e+04 </wgt>
<wgt id='1234'> -7.9462067e+04 </wgt>
<wgt id='1235'> -8.0014142e+04 </wgt>
<wgt id='1236'> -8.0330068e+04 </wgt>
<wgt id='1237'> -8.0010696e+04 </wgt>
<wgt id='1238'> -7.9449295e+04 </wgt>
<wgt id='1239'> -8.0337673e+04 </wgt>
<wgt id='1240'> -7.9612700e+04 </wgt>
<wgt id='1241'> -8.0251237e+04 </wgt>
<wgt id='1242'> -7.9946607e+04 </wgt>
<wgt id='1243'> -7.9322486e+04 </wgt>
<wgt id='1244'> -8.0309799e+04 </wgt>
<wgt id='1245'> -7.9775472e+04 </wgt>
<wgt id='1246'> -7.9222530e+04 </wgt>
<wgt id='1247'> -8.0697073e+04 </wgt>
<wgt id='1248'> -7.9133848e+04 </wgt>
<wgt id='1249'> -7.9882038e+04 </wgt>
<wgt id='1250'> -8.0353034e+04 </wgt>
<wgt id='1251'> -7.9534203e+04 </wgt>
<wgt id='1252'> -8.1150281e+04 </wgt>
<wgt id='1253'> -7.9192649e+04 </wgt>
<wgt id='1254'> -8.0216535e+04 </wgt>
<wgt id='1255'> -7.9357526e+04 </wgt>
<wgt id='1256'> -8.0175499e+04 </wgt>
<wgt id='1257'> -8.0591216e+04 </wgt>
<wgt id='1258'> -8.0331036e+04 </wgt>
<wgt id='1259'> -7.9985778e+04 </wgt>
<wgt id='1260'> -7.9819742e+04 </wgt>
<wgt id='1261'> -8.0043650e+04 </wgt>
<wgt id='1262'> -7.9501433e+04 </wgt>
<wgt id='1263'> -7.9868846e+04 </wgt>
<wgt id='1264'> -7.9325756e+04 </wgt>
<wgt id='1265'> -7.9326182e+04 </wgt>
<wgt id='1266'> -7.9701729e+04 </wgt>
<wgt id='1267'> -7.9736998e+04 </wgt>
<wgt id='1268'> -8.0299226e+04 </wgt>
<wgt id='1269'> -8.0347676e+04 </wgt>
<wgt id='1270'> -7.9674352e+04 </wgt>
<wgt id='1271'> -7.9484434e+04 </wgt>
<wgt id='1272'> -7.9837589e+04 </wgt>
<wgt id='1273'> -7.9977481e+04 </wgt>
<wgt id='1274'> -8.0027434e+04 </wgt>
<wgt id='1275'> -7.9189871e+04 </wgt>
<wgt id='1276'> -7.9748729e+04 </wgt>
<wgt id='1277'> -7.9471722e+04 </wgt>
<wgt id='1278'> -7.9759472e+04 </wgt>
<wgt id='1279'> -7.9812800e+04 </wgt>
<wgt id='1280'> -7.9862799e+04 </wgt>
<wgt id='1281'> -8.0024630e+04 </wgt>
<wgt id='1282'> -7.9848106e+04 </wgt>
<wgt id='1283'> -7.9862851e+04 </wgt>
<wgt id='1284'> -7.9987362e+04 </wgt>
<wgt id='1285'> -8.0051084e+04 </wgt>
<wgt id='1286'> -7.9932633e+04 </wgt>
<wgt id='1287'> -7.9814446e+04 </wgt>
<wgt id='1288'> -7.9639399e+04 </wgt>
<wgt id='1289'> -8.0103751e+04 </wgt>
<wgt id='1290'> -7.9802331e+04 </wgt>
<wgt id='1291'> -7.9622024e+04 </wgt>
<wgt id='1292'> -7.9835905e+04 </wgt>
<wgt id='1293'> -7.9828228e+04 </wgt>
<wgt id='1294'> -7.9838757e+04 </wgt>
<wgt id='1295'> -7.9711198e+04 </wgt>
<wgt id='1296'> -8.0090805e+04 </wgt>
<wgt id='1297'> -7.9992381e+04 </wgt>
<wgt id='1298'> -7.9885429e+04 </wgt>
<wgt id='1299'> -7.9865986e+04 </wgt>
<wgt id='1300'> -8.0095682e+04 </wgt>
<wgt id='1301'> -7.9879215e+04 </wgt>
<wgt id='1302'> -7.9778585e+04 </wgt>
<wgt id='1303'> -7.9644055e+04 </wgt>
<wgt id='1304'> -7.9789263e+04 </wgt>
<wgt id='1305'> -7.9691912e+04 </wgt>
<wgt id='1306'> -7.9818224e+04 </wgt>
<wgt id='1307'> -7.9836289e+04 </wgt>
<wgt id='1308'> -7.9921527e+04 </wgt>
<wgt id='1309'> -7.9799853e+04 </wgt>
<wgt id='1310'> -7.9817236e+04 </wgt>
<wgt id='1311'> -7.9773234e+04 </wgt>
<wgt id='1312'> -7.9957539e+04 </wgt>
<wgt id='1313'> -7.9817344e+04 </wgt>
<wgt id='1314'> -7.9772318e+04 </wgt>
<wgt id='1315'> -7.9838543e+04 </wgt>
<wgt id='1316'> -7.9827597e+04 </wgt>
<wgt id='1317'> -7.9958656e+04 </wgt>
<wgt id='1318'> -7.9912308e+04 </wgt>
<wgt id='1319'> -7.9798717e+04 </wgt>
<wgt id='1320'> -7.9843952e+04 </wgt>
<wgt id='1321'> -7.9767456e+04 </wgt>
<wgt id='1322'> -7.9873092e+04 </wgt>
<wgt id='1323'> -7.9936855e+04 </wgt>
<wgt id='1324'> -8.2161301e+04 </wgt>
<wgt id='1325'> -7.7188532e+04 </wgt>
<wgt id='1326'> -6.5010052e+04 </wgt>
<wgt id='1327'> -6.1877662e+04 </wgt>
<wgt id='1328'> -7.4277908e+04 </wgt>
<wgt id='1329'> -7.3296349e+04 </wgt>
<wgt id='1330'> -7.2069897e+04 </wgt>
<wgt id='1331'> -7.3564634e+04 </wgt>
<wgt id='1332'> -7.2841799e+04 </wgt>
<wgt id='1333'> -7.4921431e+04 </wgt>
<wgt id='1334'> -7.4385612e+04 </wgt>
<wgt id='1335'> -7.0406812e+04 </wgt>
<wgt id='1336'> -7.5272209e+04 </wgt>
<wgt id='1337'> -7.3690903e+04 </wgt>
<wgt id='1338'> -7.4955992e+04 </wgt>
<wgt id='1339'> -7.2305927e+04 </wgt>
<wgt id='1340'> -7.1058632e+04 </wgt>
<wgt id='1341'> -7.3128458e+04 </wgt>
<wgt id='1342'> -7.1790925e+04 </wgt>
<wgt id='1343'> -7.4846515e+04 </wgt>
<wgt id='1344'> -7.8051620e+04 </wgt>
<wgt id='1345'> -7.5069613e+04 </wgt>
<wgt id='1346'> -7.4993103e+04 </wgt>
<wgt id='1347'> -7.4533585e+04 </wgt>
<wgt id='1348'> -7.4072198e+04 </wgt>
<wgt id='1349'> -7.4776435e+04 </wgt>
<wgt id='1350'> -7.6032509e+04 </wgt>
<wgt id='1351'> -7.3461581e+04 </wgt>
<wgt id='1352'> -7.5536332e+04 </wgt>
<wgt id='1353'> -8.0110024e+04 </wgt>
<wgt id='1354'> -7.4320525e+04 </wgt>
<wgt id='1355'> -7.3359129e+04 </wgt>
<wgt id='1356'> -7.2825533e+04 </wgt>
<wgt id='1357'> -7.7601919e+04 </wgt>
<wgt id='1358'> -7.5708029e+04 </wgt>
<wgt id='1359'> -7.3883686e+04 </wgt>
<wgt id='1360'> -7.4823993e+04 </wgt>
<wgt id='1361'> -7.4318567e+04 </wgt>
<wgt id='1362'> -7.2638444e+04 </wgt>
<wgt id='1363'> -7.2566152e+04 </wgt>
<wgt id='1364'> -7.6016184e+04 </wgt>
<wgt id='1365'> -7.5187838e+04 </wgt>
<wgt id='1366'> -7.2296447e+04 </wgt>
<wgt id='1367'> -7.6728533e+04 </wgt>
<wgt id='1368'> -7.2666487e+04 </wgt>
<wgt id='1369'> -7.9642895e+04 </wgt>
<wgt id='1370'> -7.2208262e+04 </wgt>
<wgt id='1371'> -7.0641192e+04 </wgt>
<wgt id='1372'> -7.1999210e+04 </wgt>
<wgt id='1373'> -7.4193063e+04 </wgt>
<wgt id='1374'> -7.4552742e+04 </wgt>
<wgt id='1375'> -7.3150809e+04 </wgt>
<wgt id='1376'> -7.2809904e+04 </wgt>
<wgt id='1377'> -7.2241218e+04 </wgt>
<wgt id='1378'> -7.3640996e+04 </wgt>
<wgt id='1379'> -7.3552051e+04 </wgt>
<wgt id='1380'> -7.5141926e+04 </wgt>
<wgt id='1381'> -7.1911778e+04 </wgt>
<wgt id='1382'> -7.5388907e+04 </wgt>
<wgt id='1383'> -7.2484499e+04 </wgt>
<wgt id='1384'> -7.4998012e+04 </wgt>
<wgt id='1385'> -7.1907240e+04 </wgt>
<wgt id='1386'> -7.3843089e+04 </wgt>
<wgt id='1387'> -7.0760033e+04 </wgt>
<wgt id='1388'> -7.3023620e+04 </wgt>
<wgt id='1389'> -7.1742217e+04 </wgt>
<wgt id='1390'> -7.5727491e+04 </wgt>
<wgt id='1391'> -7.7101485e+04 </wgt>
<wgt id='1392'> -7.5110767e+04 </wgt>
<wgt id='1393'> -7.2760157e+04 </wgt>
<wgt id='1394'> -7.5187838e+04 </wgt>
<wgt id='1395'> -7.5293842e+04 </wgt>
<wgt id='1396'> -7.4452985e+04 </wgt>
<wgt id='1397'> -7.3090125e+04 </wgt>
<wgt id='1398'> -7.6598690e+04 </wgt>
<wgt id='1399'> -7.3624342e+04 </wgt>
<wgt id='1400'> -7.6080119e+04 </wgt>
<wgt id='1401'> -7.1561435e+04 </wgt>
<wgt id='1402'> -7.6004357e+04 </wgt>
<wgt id='1403'> -7.8731115e+04 </wgt>
<wgt id='1404'> -7.3689169e+04 </wgt>
<wgt id='1405'> -7.1991691e+04 </wgt>
<wgt id='1406'> -7.4030833e+04 </wgt>
<wgt id='1407'> -7.6912865e+04 </wgt>
<wgt id='1408'> -7.6126760e+04 </wgt>
<wgt id='1409'> -7.5990036e+04 </wgt>
<wgt id='1410'> -7.3502335e+04 </wgt>
<wgt id='1411'> -7.2852121e+04 </wgt>
<wgt id='1412'> -7.3580544e+04 </wgt>
<wgt id='1413'> -7.3958539e+04 </wgt>
<wgt id='1414'> -7.5856890e+04 </wgt>
<wgt id='1415'> -7.4563322e+04 </wgt>
<wgt id='1416'> -7.3745765e+04 </wgt>
<wgt id='1417'> -7.8350507e+04 </wgt>
<wgt id='1418'> -7.5710854e+04 </wgt>
<wgt id='1419'> -7.1292458e+04 </wgt>
<wgt id='1420'> -7.3673869e+04 </wgt>
<wgt id='1421'> -7.6353312e+04 </wgt>
<wgt id='1422'> -7.4140549e+04 </wgt>
<wgt id='1423'> -7.6598685e+04 </wgt>
<wgt id='1424'> -7.4022922e+04 </wgt>
<wgt id='1425'> -7.4827872e+04 </wgt>
<wgt id='1426'> -7.3882241e+04 </wgt>
<wgt id='1427'> -7.5065880e+04 </wgt>
<wgt id='1428'> -7.5453270e+04 </wgt>
<wgt id='1429'> -7.6405607e+04 </wgt>
<wgt id='1430'> -7.1849523e+04 </wgt>
<wgt id='1431'> -7.4169280e+04 </wgt>
<wgt id='1432'> -7.3774270e+04 </wgt>
<wgt id='1433'> -7.4235670e+04 </wgt>
<wgt id='1434'> -7.3932601e+04 </wgt>
<wgt id='1435'> -7.4347311e+04 </wgt>
<wgt id='1436'> -7.3752826e+04 </wgt>
<wgt id='1437'> -7.4310276e+04 </wgt>
<wgt id='1438'> -7.4716797e+04 </wgt>
<wgt id='1439'> -7.4373835e+04 </wgt>
<wgt id='1440'> -7.3662115e+04 </wgt>
<wgt id='1441'> -7.3842435e+04 </wgt>
<wgt id='1442'> -7.4053754e+04 </wgt>
<wgt id='1443'> -7.4429472e+04 </wgt>
<wgt id='1444'> -7.3827857e+04 </wgt>
<wgt id='1445'> -7.3715487e+04 </wgt>
<wgt id='1446'> -7.3158733e+04 </wgt>
<wgt id='1447'> -7.4627034e+04 </wgt>
<wgt id='1448'> -7.4058189e+04 </wgt>
<wgt id='1449'> -7.4467557e+04 </wgt>
<wgt id='1450'> -7.3926989e+04 </wgt>
<wgt id='1451'> -7.4242703e+04 </wgt>
<wgt id='1452'> -7.4174674e+04 </wgt>
<wgt id='1453'> -7.4066386e+04 </wgt>
<wgt id='1454'> -7.4771540e+04 </wgt>
<wgt id='1455'> -7.4063921e+04 </wgt>
<wgt id='1456'> -7.4171601e+04 </wgt>
<wgt id='1457'> -7.4123477e+04 </wgt>
<wgt id='1458'> -7.4366345e+04 </wgt>
<wgt id='1459'> -7.4205324e+04 </wgt>
<wgt id='1460'> -7.4258033e+04 </wgt>
<wgt id='1461'> -7.4242970e+04 </wgt>
<wgt id='1462'> -7.4220856e+04 </wgt>
<wgt id='1463'> -7.4103532e+04 </wgt>
<wgt id='1464'> -7.4158599e+04 </wgt>
<wgt id='1465'> -7.4185972e+04 </wgt>
<wgt id='1466'> -7.4392040e+04 </wgt>
<wgt id='1467'> -7.4162166e+04 </wgt>
<wgt id='1468'> -7.4171142e+04 </wgt>
<wgt id='1469'> -7.4182045e+04 </wgt>
<wgt id='1470'> -7.4108297e+04 </wgt>
<wgt id='1471'> -7.4176970e+04 </wgt>
<wgt id='1472'> -7.4038598e+04 </wgt>
<wgt id='1473'> -7.4065132e+04 </wgt>
<wgt id='1474'> -7.4167211e+04 </wgt>
<wgt id='1475'> -7.4084649e+04 </wgt>
<wgt id='1476'> -7.4326034e+04 </wgt>
<wgt id='1477'> -7.4119177e+04 </wgt>
<wgt id='1478'> -7.4047237e+04 </wgt>
<wgt id='1479'> -7.4163728e+04 </wgt>
<wgt id='1480'> -7.4117865e+04 </wgt>
<wgt id='1481'> -7.4178214e+04 </wgt>
<wgt id='1482'> -7.6405607e+04 </wgt>
<wgt id='1483'> -7.1849523e+04 </wgt>
<wgt id='1484'> -7.4753057e+04 </wgt>
<wgt id='1485'> -7.5308467e+04 </wgt>
<wgt id='1486'> -7.5324709e+04 </wgt>
<wgt id='1487'> -7.6542861e+04 </wgt>
<wgt id='1488'> -7.5023255e+04 </wgt>
<wgt id='1489'> -7.4382290e+04 </wgt>
<wgt id='1490'> -7.7642858e+04 </wgt>
<wgt id='1491'> -7.2826152e+04 </wgt>
<wgt id='1492'> -7.5925548e+04 </wgt>
<wgt id='1493'> -7.4795082e+04 </wgt>
<wgt id='1494'> -7.4641905e+04 </wgt>
<wgt id='1495'> -7.4450601e+04 </wgt>
<wgt id='1496'> -7.5265496e+04 </wgt>
<wgt id='1497'> -7.4612167e+04 </wgt>
<wgt id='1498'> -7.5385883e+04 </wgt>
<wgt id='1499'> -7.4760122e+04 </wgt>
<wgt id='1500'> -7.6820237e+04 </wgt>
<wgt id='1501'> -7.4886105e+04 </wgt>
<wgt id='1502'> -7.4842327e+04 </wgt>
<wgt id='1503'> -7.5199062e+04 </wgt>
<wgt id='1504'> -7.5337602e+04 </wgt>
<wgt id='1505'> -7.5151887e+04 </wgt>
<wgt id='1506'> -7.6221859e+04 </wgt>
<wgt id='1507'> -7.4907726e+04 </wgt>
<wgt id='1508'> -7.4777321e+04 </wgt>
<wgt id='1509'> -7.3272939e+04 </wgt>
<wgt id='1510'> -7.3740122e+04 </wgt>
<wgt id='1511'> -7.3701485e+04 </wgt>
<wgt id='1512'> -7.5918669e+04 </wgt>
<wgt id='1513'> -7.3543138e+04 </wgt>
<wgt id='1514'> -7.4128801e+04 </wgt>
<wgt id='1515'> -7.5401699e+04 </wgt>
<wgt id='1516'> -7.5372012e+04 </wgt>
<wgt id='1517'> -7.4418027e+04 </wgt>
<wgt id='1518'> -7.4640261e+04 </wgt>
<wgt id='1519'> -7.5003730e+04 </wgt>
<wgt id='1520'> -7.5128769e+04 </wgt>
<wgt id='1521'> -7.5194949e+04 </wgt>
<wgt id='1522'> -7.4451142e+04 </wgt>
<wgt id='1523'> -7.5288390e+04 </wgt>
<wgt id='1524'> -7.5021618e+04 </wgt>
<wgt id='1525'> -7.5057986e+04 </wgt>
<wgt id='1526'> -7.2929264e+04 </wgt>
<wgt id='1527'> -7.4340406e+04 </wgt>
<wgt id='1528'> -7.3311687e+04 </wgt>
<wgt id='1529'> -7.4320159e+04 </wgt>
<wgt id='1530'> -7.4444224e+04 </wgt>
<wgt id='1531'> -7.5523598e+04 </wgt>
<wgt id='1532'> -7.7178261e+04 </wgt>
<wgt id='1533'> -7.4833797e+04 </wgt>
<wgt id='1534'> -7.3898173e+04 </wgt>
<wgt id='1535'> -7.5605281e+04 </wgt>
<wgt id='1536'> -7.4762892e+04 </wgt>
<wgt id='1537'> -7.2974773e+04 </wgt>
<wgt id='1538'> -7.3533136e+04 </wgt>
<wgt id='1539'> -7.5804757e+04 </wgt>
<wgt id='1540'> -7.4322031e+04 </wgt>
<wgt id='1541'> -7.5807909e+04 </wgt>
<wgt id='1542'> -7.3921420e+04 </wgt>
<wgt id='1543'> -7.4965309e+04 </wgt>
<wgt id='1544'> -7.4897869e+04 </wgt>
<wgt id='1545'> -7.5021856e+04 </wgt>
<wgt id='1546'> -7.4308710e+04 </wgt>
<wgt id='1547'> -7.4406570e+04 </wgt>
<wgt id='1548'> -7.4905944e+04 </wgt>
<wgt id='1549'> -7.4504352e+04 </wgt>
<wgt id='1550'> -7.4503653e+04 </wgt>
<wgt id='1551'> -7.4502029e+04 </wgt>
<wgt id='1552'> -7.4731429e+04 </wgt>
<wgt id='1553'> -7.4967307e+04 </wgt>
<wgt id='1554'> -7.3759812e+04 </wgt>
<wgt id='1555'> -7.3686889e+04 </wgt>
<wgt id='1556'> -7.3973684e+04 </wgt>
<wgt id='1557'> -7.5030269e+04 </wgt>
<wgt id='1558'> -7.4672127e+04 </wgt>
<wgt id='1559'> -7.4792217e+04 </wgt>
<wgt id='1560'> -7.6424116e+04 </wgt>
<wgt id='1561'> -7.2974339e+04 </wgt>
<wgt id='1562'> -7.4548450e+04 </wgt>
<wgt id='1563'> -7.3984883e+04 </wgt>
<wgt id='1564'> -7.4400925e+04 </wgt>
<wgt id='1565'> -7.5673039e+04 </wgt>
<wgt id='1566'> -7.4212382e+04 </wgt>
<wgt id='1567'> -7.4173369e+04 </wgt>
<wgt id='1568'> -7.4448611e+04 </wgt>
<wgt id='1569'> -7.4578213e+04 </wgt>
<wgt id='1570'> -7.3967491e+04 </wgt>
<wgt id='1571'> -7.4633032e+04 </wgt>
<wgt id='1572'> -7.4961566e+04 </wgt>
<wgt id='1573'> -7.3901340e+04 </wgt>
<wgt id='1574'> -7.3299665e+04 </wgt>
<wgt id='1575'> -7.6149443e+04 </wgt>
<wgt id='1576'> -7.5605086e+04 </wgt>
<wgt id='1577'> -7.4075998e+04 </wgt>
<wgt id='1578'> -7.4541917e+04 </wgt>
<wgt id='1579'> -7.5145152e+04 </wgt>
<wgt id='1580'> -7.4306382e+04 </wgt>
<wgt id='1581'> -7.4270139e+04 </wgt>
<wgt id='1582'> -7.5421032e+04 </wgt>
<wgt id='1583'> -7.4591273e+04 </wgt>
<wgt id='1584'> -7.5535726e+04 </wgt>
<wgt id='1585'> -7.4305385e+04 </wgt>
<wgt id='1586'> -1.3336136e+05 </wgt>
<wgt id='1587'> -7.8620757e+04 </wgt>
<wgt id='1588'> -7.6405607e+04 </wgt>
<wgt id='1589'> -7.5285111e+04 </wgt>
<wgt id='1590'> -7.2705762e+04 </wgt>
<wgt id='1591'> -7.1849523e+04 </wgt>
<wgt id='1592'> -6.9070368e+04 </wgt>
<wgt id='1593'> -6.5398706e+04 </wgt>
<wgt id='1594'> -6.5427820e+04 </wgt>
<wgt id='1595'> -6.4100867e+04 </wgt>
<wgt id='1596'> -6.4639446e+04 </wgt>
<wgt id='1597'> -6.6260803e+04 </wgt>
<wgt id='1598'> -6.3859844e+04 </wgt>
<wgt id='1599'> -6.6682052e+04 </wgt>
<wgt id='1600'> -6.4762839e+04 </wgt>
<wgt id='1601'> -6.5867944e+04 </wgt>
<wgt id='1602'> -6.4795889e+04 </wgt>
<wgt id='1603'> -6.5925762e+04 </wgt>
<wgt id='1604'> -6.6200904e+04 </wgt>
<wgt id='1605'> -6.4735623e+04 </wgt>
<wgt id='1606'> -6.5754353e+04 </wgt>
<wgt id='1607'> -6.4442731e+04 </wgt>
<wgt id='1608'> -6.5133998e+04 </wgt>
<wgt id='1609'> -6.4780063e+04 </wgt>
<wgt id='1610'> -6.4344598e+04 </wgt>
<wgt id='1611'> -6.6199748e+04 </wgt>
<wgt id='1612'> -6.6639695e+04 </wgt>
<wgt id='1613'> -6.3001236e+04 </wgt>
<wgt id='1614'> -6.5459398e+04 </wgt>
<wgt id='1615'> -6.5278568e+04 </wgt>
<wgt id='1616'> -6.5028375e+04 </wgt>
<wgt id='1617'> -6.5364276e+04 </wgt>
<wgt id='1618'> -6.5798895e+04 </wgt>
<wgt id='1619'> -6.4521904e+04 </wgt>
<wgt id='1620'> -6.4123115e+04 </wgt>
<wgt id='1621'> -6.6049326e+04 </wgt>
<wgt id='1622'> -6.4278283e+04 </wgt>
<wgt id='1623'> -6.5445024e+04 </wgt>
<wgt id='1624'> -6.5388937e+04 </wgt>
<wgt id='1625'> -6.4648780e+04 </wgt>
<wgt id='1626'> -6.5083259e+04 </wgt>
<wgt id='1627'> -6.5056689e+04 </wgt>
<wgt id='1628'> -6.6302154e+04 </wgt>
<wgt id='1629'> -6.4331775e+04 </wgt>
<wgt id='1630'> -6.5999582e+04 </wgt>
<wgt id='1631'> -6.4547652e+04 </wgt>
<wgt id='1632'> -6.4337319e+04 </wgt>
<wgt id='1633'> -6.6076251e+04 </wgt>
<wgt id='1634'> -6.5761441e+04 </wgt>
<wgt id='1635'> -6.4698329e+04 </wgt>
<wgt id='1636'> -6.3643172e+04 </wgt>
<wgt id='1637'> -6.6363512e+04 </wgt>
<wgt id='1638'> -6.4967419e+04 </wgt>
<wgt id='1639'> -6.5454685e+04 </wgt>
<wgt id='1640'> -6.4798806e+04 </wgt>
<wgt id='1641'> -6.5198316e+04 </wgt>
<wgt id='1642'> -6.5517486e+04 </wgt>
<wgt id='1643'> -6.4621511e+04 </wgt>
<wgt id='1644'> -6.4525033e+04 </wgt>
<wgt id='1645'> -6.5592418e+04 </wgt>
<wgt id='1646'> -6.6009053e+04 </wgt>
<wgt id='1647'> -6.4287624e+04 </wgt>
<wgt id='1648'> -6.5191566e+04 </wgt>
<wgt id='1649'> -6.5266273e+04 </wgt>
<wgt id='1650'> -6.4732554e+04 </wgt>
<wgt id='1651'> -6.5904860e+04 </wgt>
<wgt id='1652'> -6.9063176e+04 </wgt>
<wgt id='1653'> -6.7214946e+04 </wgt>
<wgt id='1654'> -6.3616992e+04 </wgt>
<wgt id='1655'> -6.1884315e+04 </wgt>
<wgt id='1656'> -6.7620183e+04 </wgt>
<wgt id='1657'> -6.6747423e+04 </wgt>
<wgt id='1658'> -6.7470849e+04 </wgt>
<wgt id='1659'> -6.6632228e+04 </wgt>
<wgt id='1660'> -6.8380786e+04 </wgt>
<wgt id='1661'> -6.7935931e+04 </wgt>
<wgt id='1662'> -6.7100064e+04 </wgt>
<wgt id='1663'> -6.6898707e+04 </wgt>
<wgt id='1664'> -6.7271935e+04 </wgt>
<wgt id='1665'> -6.7087535e+04 </wgt>
<wgt id='1666'> -6.7529752e+04 </wgt>
<wgt id='1667'> -6.7353387e+04 </wgt>
<wgt id='1668'> -6.7702903e+04 </wgt>
<wgt id='1669'> -6.7660383e+04 </wgt>
<wgt id='1670'> -6.7279001e+04 </wgt>
<wgt id='1671'> -6.8365438e+04 </wgt>
<wgt id='1672'> -6.6197651e+04 </wgt>
<wgt id='1673'> -6.7639954e+04 </wgt>
<wgt id='1674'> -6.7602407e+04 </wgt>
<wgt id='1675'> -6.7040125e+04 </wgt>
<wgt id='1676'> -6.8087079e+04 </wgt>
<wgt id='1677'> -6.7823979e+04 </wgt>
<wgt id='1678'> -6.7323807e+04 </wgt>
<wgt id='1679'> -6.7740197e+04 </wgt>
<wgt id='1680'> -6.7595628e+04 </wgt>
<wgt id='1681'> -6.6878758e+04 </wgt>
<wgt id='1682'> -6.7874171e+04 </wgt>
<wgt id='1683'> -6.8881556e+04 </wgt>
<wgt id='1684'> -6.6398060e+04 </wgt>
<wgt id='1685'> -6.7180279e+04 </wgt>
<wgt id='1686'> -6.7518112e+04 </wgt>
<wgt id='1687'> -6.8580351e+04 </wgt>
<wgt id='1688'> -6.6091043e+04 </wgt>
<wgt id='1689'> -6.8170890e+04 </wgt>
<wgt id='1690'> -6.7006683e+04 </wgt>
<wgt id='1691'> -6.7013640e+04 </wgt>
<wgt id='1692'> -6.7563915e+04 </wgt>
<wgt id='1693'> -6.7991310e+04 </wgt>
<wgt id='1694'> -6.7308230e+04 </wgt>
<wgt id='1695'> -6.7887748e+04 </wgt>
<wgt id='1696'> -6.6643074e+04 </wgt>
<wgt id='1697'> -6.7677801e+04 </wgt>
<wgt id='1698'> -6.7502695e+04 </wgt>
<wgt id='1699'> -6.6389185e+04 </wgt>
<wgt id='1700'> -6.9118905e+04 </wgt>
<wgt id='1701'> -6.6907144e+04 </wgt>
<wgt id='1702'> -6.8328301e+04 </wgt>
<wgt id='1703'> -6.7757939e+04 </wgt>
<wgt id='1704'> -6.7654936e+04 </wgt>
<wgt id='1705'> -6.6619020e+04 </wgt>
<wgt id='1706'> -6.7985049e+04 </wgt>
<wgt id='1707'> -6.6177372e+04 </wgt>
<wgt id='1708'> -6.8601224e+04 </wgt>
<wgt id='1709'> -6.7058050e+04 </wgt>
<wgt id='1710'> -6.7984438e+04 </wgt>
<wgt id='1711'> -6.6423858e+04 </wgt>
<wgt id='1712'> -6.7989630e+04 </wgt>
<wgt id='1713'> -6.6517910e+04 </wgt>
<wgt id='1714'> -6.7958892e+04 </wgt>
<wgt id='1715'> -6.5163205e+04 </wgt>
<wgt id='1716'> -6.4287157e+04 </wgt>
<wgt id='1717'> -6.7925688e+04 </wgt>
<wgt id='1718'> -6.7993069e+04 </wgt>
<wgt id='1719'> -6.7839232e+04 </wgt>
<wgt id='1720'> -6.7567059e+04 </wgt>
<wgt id='1721'> -6.8253315e+04 </wgt>
<wgt id='1722'> -6.7727591e+04 </wgt>
<wgt id='1723'> -6.8250399e+04 </wgt>
<wgt id='1724'> -6.8034084e+04 </wgt>
<wgt id='1725'> -6.7837337e+04 </wgt>
<wgt id='1726'> -6.7849856e+04 </wgt>
<wgt id='1727'> -6.8003909e+04 </wgt>
<wgt id='1728'> -6.7634442e+04 </wgt>
<wgt id='1729'> -6.8207583e+04 </wgt>
<wgt id='1730'> -6.8150832e+04 </wgt>
<wgt id='1731'> -6.7765794e+04 </wgt>
<wgt id='1732'> -6.8035705e+04 </wgt>
<wgt id='1733'> -6.8035705e+04 </wgt>
<wgt id='1734'> -6.8079419e+04 </wgt>
<wgt id='1735'> -6.7819732e+04 </wgt>
<wgt id='1736'> -6.7854813e+04 </wgt>
<wgt id='1737'> -6.8026949e+04 </wgt>
<wgt id='1738'> -6.7982361e+04 </wgt>
<wgt id='1739'> -6.7813199e+04 </wgt>
<wgt id='1740'> -6.7888542e+04 </wgt>
<wgt id='1741'> -6.8015324e+04 </wgt>
<wgt id='1742'> -6.8218129e+04 </wgt>
<wgt id='1743'> -6.7610069e+04 </wgt>
<wgt id='1744'> -6.7933381e+04 </wgt>
<wgt id='1745'> -6.7903800e+04 </wgt>
<wgt id='1746'> -6.8204444e+04 </wgt>
<wgt id='1747'> -6.7758093e+04 </wgt>
<wgt id='1748'> -6.7978151e+04 </wgt>
<wgt id='1749'> -6.7719594e+04 </wgt>
<wgt id='1750'> -6.8017267e+04 </wgt>
<wgt id='1751'> -6.7827686e+04 </wgt>
<wgt id='1752'> -6.7544278e+04 </wgt>
<wgt id='1753'> -6.8434746e+04 </wgt>
<wgt id='1754'> -6.7927712e+04 </wgt>
<wgt id='1755'> -6.7924008e+04 </wgt>
<wgt id='1756'> -6.7855792e+04 </wgt>
<wgt id='1757'> -6.8130076e+04 </wgt>
<wgt id='1758'> -6.8453579e+04 </wgt>
<wgt id='1759'> -6.7415105e+04 </wgt>
<wgt id='1760'> -6.8677199e+04 </wgt>
<wgt id='1761'> -6.7290617e+04 </wgt>
<wgt id='1762'> -6.7786473e+04 </wgt>
<wgt id='1763'> -6.7991641e+04 </wgt>
<wgt id='1764'> -6.7853183e+04 </wgt>
<wgt id='1765'> -6.8182641e+04 </wgt>
<wgt id='1766'> -6.7934790e+04 </wgt>
<wgt id='1767'> -6.7884644e+04 </wgt>
<wgt id='1768'> -6.7905044e+04 </wgt>
<wgt id='1769'> -6.7897682e+04 </wgt>
<wgt id='1770'> -6.7580331e+04 </wgt>
<wgt id='1771'> -6.7993532e+04 </wgt>
<wgt id='1772'> -6.7726731e+04 </wgt>
<wgt id='1773'> -6.8326739e+04 </wgt>
<wgt id='1774'> -6.7465993e+04 </wgt>
<wgt id='1775'> -6.8233988e+04 </wgt>
<wgt id='1776'> -6.8023092e+04 </wgt>
<wgt id='1777'> -6.7886513e+04 </wgt>
<wgt id='1778'> -6.7495406e+04 </wgt>
<wgt id='1779'> -6.7914375e+04 </wgt>
<wgt id='1780'> -6.8658531e+04 </wgt>
<wgt id='1781'> -6.7781255e+04 </wgt>
<wgt id='1782'> -6.7925688e+04 </wgt>
<wgt id='1783'> -6.7979897e+04 </wgt>
<wgt id='1784'> -6.9158456e+04 </wgt>
<wgt id='1785'> -6.9485404e+04 </wgt>
<wgt id='1786'> -6.8620901e+04 </wgt>
<wgt id='1787'> -6.9184554e+04 </wgt>
<wgt id='1788'> -6.8436810e+04 </wgt>
<wgt id='1789'> -6.9273116e+04 </wgt>
<wgt id='1790'> -6.9830943e+04 </wgt>
<wgt id='1791'> -6.9502130e+04 </wgt>
<wgt id='1792'> -6.8577020e+04 </wgt>
<wgt id='1793'> -6.9511999e+04 </wgt>
<wgt id='1794'> -6.8581508e+04 </wgt>
<wgt id='1795'> -6.8981685e+04 </wgt>
<wgt id='1796'> -6.9391837e+04 </wgt>
<wgt id='1797'> -6.9295670e+04 </wgt>
<wgt id='1798'> -6.9323807e+04 </wgt>
<wgt id='1799'> -6.8792463e+04 </wgt>
<wgt id='1800'> -6.9232396e+04 </wgt>
<wgt id='1801'> -7.0966373e+04 </wgt>
<wgt id='1802'> -6.9590214e+04 </wgt>
<wgt id='1803'> -6.9018393e+04 </wgt>
<wgt id='1804'> -6.9412777e+04 </wgt>
<wgt id='1805'> -6.8986625e+04 </wgt>
<wgt id='1806'> -6.9058599e+04 </wgt>
<wgt id='1807'> -6.9223023e+04 </wgt>
<wgt id='1808'> -6.9145776e+04 </wgt>
<wgt id='1809'> -6.9273675e+04 </wgt>
<wgt id='1810'> -6.9220055e+04 </wgt>
<wgt id='1811'> -6.9145391e+04 </wgt>
<wgt id='1812'> -6.9334919e+04 </wgt>
<wgt id='1813'> -6.9241997e+04 </wgt>
<wgt id='1814'> -6.9527133e+04 </wgt>
<wgt id='1815'> -6.9085545e+04 </wgt>
<wgt id='1816'> -6.9238563e+04 </wgt>
<wgt id='1817'> -6.9265132e+04 </wgt>
<wgt id='1818'> -6.9258399e+04 </wgt>
<wgt id='1819'> -6.9094383e+04 </wgt>
<wgt id='1820'> -6.9307640e+04 </wgt>
<wgt id='1821'> -6.9083022e+04 </wgt>
<wgt id='1822'> -6.9290975e+04 </wgt>
<wgt id='1823'> -6.8585618e+04 </wgt>
<wgt id='1824'> -6.9322478e+04 </wgt>
<wgt id='1825'> -6.9957727e+04 </wgt>
<wgt id='1826'> -6.8574910e+04 </wgt>
<wgt id='1827'> -7.0799799e+04 </wgt>
<wgt id='1828'> -7.0904607e+04 </wgt>
<wgt id='1829'> -7.0697309e+04 </wgt>
<wgt id='1830'> -7.0634694e+04 </wgt>
<wgt id='1831'> -7.0967340e+04 </wgt>
<wgt id='1832'> -7.0869063e+04 </wgt>
<wgt id='1833'> -7.0732403e+04 </wgt>
<wgt id='1834'> -7.0776861e+04 </wgt>
<wgt id='1835'> -7.0818696e+04 </wgt>
<wgt id='1836'> -7.0879021e+04 </wgt>
<wgt id='1837'> -7.0725008e+04 </wgt>
<wgt id='1838'> -7.0954544e+04 </wgt>
<wgt id='1839'> -7.0647284e+04 </wgt>
<wgt id='1840'> -7.0650988e+04 </wgt>
<wgt id='1841'> -7.0944604e+04 </wgt>
<wgt id='1842'> -7.0625660e+04 </wgt>
<wgt id='1843'> -7.0795183e+04 </wgt>
<wgt id='1844'> -7.0924323e+04 </wgt>
<wgt id='1845'> -7.0671483e+04 </wgt>
<wgt id='1846'> -7.0570285e+04 </wgt>
<wgt id='1847'> -7.1032340e+04 </wgt>
<wgt id='1848'> -7.0640441e+04 </wgt>
<wgt id='1849'> -7.0910962e+04 </wgt>
<wgt id='1850'> -7.1171668e+04 </wgt>
<wgt id='1851'> -7.0444475e+04 </wgt>
<wgt id='1852'> -7.0868182e+04 </wgt>
<wgt id='1853'> -7.0652047e+04 </wgt>
<wgt id='1854'> -7.1038479e+04 </wgt>
<wgt id='1855'> -7.0608684e+04 </wgt>
<wgt id='1856'> -6.3790118e+04 </wgt>
<wgt id='1857'> -6.3796841e+04 </wgt>
<wgt id='1858'> -6.3796125e+04 </wgt>
<wgt id='1859'> -6.3734311e+04 </wgt>
<wgt id='1860'> -6.3792610e+04 </wgt>
<wgt id='1861'> -6.3927325e+04 </wgt>
<wgt id='1862'> -6.3594662e+04 </wgt>
<wgt id='1863'> -6.3958583e+04 </wgt>
<wgt id='1864'> -6.3836045e+04 </wgt>
<wgt id='1865'> -6.3694929e+04 </wgt>
<wgt id='1866'> -6.3764966e+04 </wgt>
<wgt id='1867'> -6.3784344e+04 </wgt>
<wgt id='1868'> -6.3646243e+04 </wgt>
<wgt id='1869'> -6.4335401e+04 </wgt>
<wgt id='1870'> -6.3942333e+04 </wgt>
<wgt id='1871'> -6.3968135e+04 </wgt>
<wgt id='1872'> -6.3658123e+04 </wgt>
<wgt id='1873'> -6.3857795e+04 </wgt>
<wgt id='1874'> -6.3897954e+04 </wgt>
<wgt id='1875'> -6.3999907e+04 </wgt>
<wgt id='1876'> -6.3714773e+04 </wgt>
<wgt id='1877'> -6.3711010e+04 </wgt>
<wgt id='1878'> -6.3745596e+04 </wgt>
<wgt id='1879'> -6.3833597e+04 </wgt>
<wgt id='1880'> -6.3846096e+04 </wgt>
<wgt id='1881'> -6.3821999e+04 </wgt>
<wgt id='1882'> -6.3941640e+04 </wgt>
<wgt id='1883'> -6.3933746e+04 </wgt>
<wgt id='1884'> -6.3808503e+04 </wgt>
<wgt id='1885'> -6.3222277e+04 </wgt>
<wgt id='1886'> -1.3859401e+05 </wgt>
<wgt id='1887'> -1.3672823e+05 </wgt>
<wgt id='1888'> -1.1410701e+05 </wgt>
<wgt id='1889'> -1.1718557e+05 </wgt>
</rwgt>
</event>
<event npLO=" -1 " npNLO=" 0 ">
 6      0 +7.4519530e+04 3.83579010e+01 7.55820760e-03 1.19868510e-01
       21 -1    0    0  501  502 +0.0000000000e+00 +0.0000000000e+00 +5.4640804487e+01 5.4640804487e+01 0.0000000000e+00 0.0000e+00 -1.0000e+00
       -3 -1    0    0    0  501 +0.0000000000e+00 +0.0000000000e+00 -5.7584470596e+01 5.7584470596e+01 0.0000000000e+00 0.0000e+00 1.0000e+00
       24  2    1    2    0    0 -2.2189108893e+01 +1.8508186722e+01 -8.8288289051e+00 8.2737232246e+01 7.7023320175e+01 0.0000e+00 0.0000e+00
      -15  1    3    3    0    0 +1.8919390545e+01 +3.3255681356e+01 -7.5848469397e+00 3.9045759221e+01 1.7770000000e+00 0.0000e+00 1.0000e+00
       16  1    3    3    0    0 -4.1108499437e+01 -1.4747494634e+01 -1.2439819654e+00 4.3691473025e+01 0.0000000000e+00 0.0000e+00 -1.0000e+00
       -4  1    1    2    0  502 +2.2189108893e+01 -1.8508186722e+01 +5.8851627960e+00 2.9488042836e+01 0.0000000000e+00 0.0000e+00 1.0000e+00
#aMCatNLO 2  0  0  1  2 0.36925970E+02 0.00000000E+00 -9  5  0 0.00000000E+00 0.00000000E+00 0.00000000E+00 0.00000000E+00 0.00000000E+00
<rwgt>
<wgt id='1001'> +7.4519530e+04 </wgt>
<wgt id='1002'> +6.7364409e+04 </wgt>
<wgt id='1003'> +8.3427518e+04 </wgt>
<wgt id='1004'> +8.1368347e+04 </wgt>
<wgt id='1005'> +7.3555625e+04 </wgt>
<wgt id='1006'> +9.1095035e+04 </wgt>
<wgt id='1007'> +6.6354829e+04 </wgt>
<wgt id='1008'> +5.9983656e+04 </wgt>
<wgt id='1009'> +7.4286817e+04 </wgt>
<wgt id='1010'> +7.4519530e+04 </wgt>
<wgt id='1011'> +7.4804668e+04 </wgt>
<wgt id='1012'> +7.4646318e+04 </wgt>
<wgt id='1013'> +7.5772370e+04 </wgt>
<wgt id='1014'> +7.3949299e+04 </wgt>
<wgt id='1015'> +7.5132585e+04 </wgt>
<wgt id='1016'> +7.4574626e+04 </wgt>
<wgt id='1017'> +7.4664825e+04 </wgt>
<wgt id='1018'> +7.5145297e+04 </wgt>
<wgt id='1019'> +7.3802949e+04 </wgt>
<wgt id='1020'> +7.5158304e+04 </wgt>
<wgt id='1021'> +7.4891002e+04 </wgt>
<wgt id='1022'> +7.3817405e+04 </wgt>
<wgt id='1023'> +7.4113358e+04 </wgt>
<wgt id='1024'> +7.3947140e+04 </wgt>
<wgt id='1025'> +7.2941386e+04 </wgt>
<wgt id='1026'> +7.5385068e+04 </wgt>
<wgt id='1027'> +7.4809077e+04 </wgt>
<wgt id='1028'> +7.5464669e+04 </wgt>
<wgt id='1029'> +7.4074592e+04 </wgt>
<wgt id='1030'> +7.4440381e+04 </wgt>
<wgt id='1031'> +7.4781607e+04 </wgt>
<wgt id='1032'> +7.3879409e+04 </wgt>
<wgt id='1033'> +7.5162306e+04 </wgt>
<wgt id='1034'> +7.5805416e+04 </wgt>
<wgt id='1035'> +7.5679069e+04 </wgt>
<wgt id='1036'> +7.4613863e+04 </wgt>
<wgt id='1037'> +7.4062821e+04 </wgt>
<wgt id='1038'> +7.3963988e+04 </wgt>
<wgt id='1039'> +7.5132851e+04 </wgt>
<wgt id='1040'> +7.4459247e+04 </wgt>
<wgt id='1041'> +7.4388431e+04 </wgt>
<wgt id='1042'> +7.5018244e+04 </wgt>
<wgt id='1043'> +7.4192074e+04 </wgt>
<wgt id='1044'> +7.4396515e+04 </wgt>
<wgt id='1045'> +7.4384494e+04 </wgt>
<wgt id='1046'> +7.4362256e+04 </wgt>
<wgt id='1047'> +7.4636793e+04 </wgt>
<wgt id='1048'> +7.4762548e+04 </wgt>
<wgt id='1049'> +7.4474144e+04 </wgt>
<wgt id='1050'> +7.4162168e+04 </wgt>
<wgt id='1051'> +7.4315578e+04 </wgt>
<wgt id='1052'> +7.4664254e+04 </wgt>
<wgt id='1053'> +7.4610373e+04 </wgt>
<wgt id='1054'> +7.4175869e+04 </wgt>
<wgt id='1055'> +7.4802385e+04 </wgt>
<wgt id='1056'> +7.4627386e+04 </wgt>
<wgt id='1057'> +7.4403880e+04 </wgt>
<wgt id='1058'> +7.4780187e+04 </wgt>
<wgt id='1059'> +7.4460451e+04 </wgt>
<wgt id='1060'> +7.4602753e+04 </wgt>
<wgt id='1061'> +7.4445904e+04 </wgt>
<wgt id='1062'> +7.4333423e+04 </wgt>
<wgt id='1063'> +7.4427091e+04 </wgt>
<wgt id='1064'> +7.4562715e+04 </wgt>
<wgt id='1065'> +7.4572161e+04 </wgt>
<wgt id='1066'> +7.4623495e+04 </wgt>
<wgt id='1067'> +7.4555550e+04 </wgt>
<wgt id='1068'> +7.4412478e+04 </wgt>
<wgt id='1069'> +7.4627121e+04 </wgt>
<wgt id='1070'> +7.4421682e+04 </wgt>
<wgt id='1071'> +7.4312719e+04 </wgt>
<wgt id='1072'> +7.4550189e+04 </wgt>
<wgt id='1073'> +7.4574291e+04 </wgt>
<wgt id='1074'> +7.4433872e+04 </wgt>
<wgt id='1075'> +7.4573914e+04 </wgt>
<wgt id='1076'> +7.4615507e+04 </wgt>
<wgt id='1077'> +7.4463499e+04 </wgt>
<wgt id='1078'> +7.4450571e+04 </wgt>
<wgt id='1079'> +7.4661884e+04 </wgt>
<wgt id='1080'> +7.4621793e+04 </wgt>
<wgt id='1081'> +7.4600113e+04 </wgt>
<wgt id='1082'> +7.4509463e+04 </wgt>
<wgt id='1083'> +7.4622151e+04 </wgt>
<wgt id='1084'> +7.4556123e+04 </wgt>
<wgt id='1085'> +7.4461428e+04 </wgt>
<wgt id='1086'> +7.4561767e+04 </wgt>
<wgt id='1087'> +7.4590898e+04 </wgt>
<wgt id='1088'> +7.4606738e+04 </wgt>
<wgt id='1089'> +7.4496848e+04 </wgt>
<wgt id='1090'> +7.4541361e+04 </wgt>
<wgt id='1091'> +7.4544156e+04 </wgt>
<wgt id='1092'> +7.4468420e+04 </wgt>
<wgt id='1093'> +7.4525792e+04 </wgt>
<wgt id='1094'> +7.4560463e+04 </wgt>
<wgt id='1095'> +7.4503159e+04 </wgt>
<wgt id='1096'> +7.4483587e+04 </wgt>
<wgt id='1097'> +7.4551460e+04 </wgt>
<wgt id='1098'> +7.4515830e+04 </wgt>
<wgt id='1099'> +7.4548937e+04 </wgt>
<wgt id='1100'> +7.4512577e+04 </wgt>
<wgt id='1101'> +7.4529590e+04 </wgt>
<wgt id='1102'> +7.4530710e+04 </wgt>
<wgt id='1103'> +7.4534983e+04 </wgt>
<wgt id='1104'> +7.4490501e+04 </wgt>
<wgt id='1105'> +7.4540353e+04 </wgt>
<wgt id='1106'> +7.4521931e+04 </wgt>
<wgt id='1107'> +7.4503065e+04 </wgt>
<wgt id='1108'> +7.4502794e+04 </wgt>
<wgt id='1109'> +7.4506064e+04 </wgt>
<wgt id='1110'> +7.4519530e+04 </wgt>
<wgt id='1111'> +7.2507403e+04 </wgt>
<wgt id='1112'> +7.5294017e+04 </wgt>
<wgt id='1113'> +7.4519530e+04 </wgt>
<wgt id='1114'> +6.1943498e+04 </wgt>
<wgt id='1115'> +7.5333292e+04 </wgt>
<wgt id='1116'> +7.8321113e+04 </wgt>
<wgt id='1117'> +7.5835456e+04 </wgt>
<wgt id='1118'> +7.4457578e+04 </wgt>
<wgt id='1119'> +6.4535692e+04 </wgt>
<wgt id='1120'> +7.0848654e+04 </wgt>
<wgt id='1121'> +8.1753598e+04 </wgt>
<wgt id='1122'> +7.5550726e+04 </wgt>
<wgt id='1123'> +7.2307013e+04 </wgt>
<wgt id='1124'> +7.4484598e+04 </wgt>
<wgt id='1125'> +7.8701385e+04 </wgt>
<wgt id='1126'> +7.7409665e+04 </wgt>
<wgt id='1127'> +7.5125836e+04 </wgt>
<wgt id='1128'> +7.3905055e+04 </wgt>
<wgt id='1129'> +7.3073397e+04 </wgt>
<wgt id='1130'> +6.8691308e+04 </wgt>
<wgt id='1131'> +7.7180482e+04 </wgt>
<wgt id='1132'> +7.6868811e+04 </wgt>
<wgt id='1133'> +8.2452050e+04 </wgt>
<wgt id='1134'> +7.4720287e+04 </wgt>
<wgt id='1135'> +7.6511262e+04 </wgt>
<wgt id='1136'> +7.0926860e+04 </wgt>
<wgt id='1137'> +8.1657727e+04 </wgt>
<wgt id='1138'> +7.9069305e+04 </wgt>
<wgt id='1139'> +7.2363851e+04 </wgt>
<wgt id='1140'> +7.2631168e+04 </wgt>
<wgt id='1141'> +7.7142960e+04 </wgt>
<wgt id='1142'> +7.3198169e+04 </wgt>
<wgt id='1143'> +6.9032198e+04 </wgt>
<wgt id='1144'> +6.9273319e+04 </wgt>
<wgt id='1145'> +7.6121514e+04 </wgt>
<wgt id='1146'> +7.2468826e+04 </wgt>
<wgt id='1147'> +8.3091624e+04 </wgt>
<wgt id='1148'> +7.4577663e+04 </wgt>
<wgt id='1149'> +7.6516440e+04 </wgt>
<wgt id='1150'> +7.7037930e+04 </wgt>
<wgt id='1151'> +7.5659042e+04 </wgt>
<wgt id='1152'> +7.1474741e+04 </wgt>
<wgt id='1153'> +7.3056784e+04 </wgt>
<wgt id='1154'> +7.4841899e+04 </wgt>
<wgt id='1155'> +7.2081711e+04 </wgt>
<wgt id='1156'> +7.2575062e+04 </wgt>
<wgt id='1157'> +6.8304867e+04 </wgt>
<wgt id='1158'> +7.5913147e+04 </wgt>
<wgt id='1159'> +7.2923134e+04 </wgt>
<wgt id='1160'> +7.6028602e+04 </wgt>
<wgt id='1161'> +7.7656160e+04 </wgt>
<wgt id='1162'> +7.1339578e+04 </wgt>
<wgt id='1163'> +7.1594123e+04 </wgt>
<wgt id='1164'> +7.5878912e+04 </wgt>
<wgt id='1165'> +7.3699397e+04 </wgt>
<wgt id='1166'> +7.6545254e+04 </wgt>
<wgt id='1167'> +6.9651549e+04 </wgt>
<wgt id='1168'> +7.8092602e+04 </wgt>
<wgt id='1169'> +7.6800592e+04 </wgt>
<wgt id='1170'> +7.5307268e+04 </wgt>
<wgt id='1171'> +7.8318094e+04 </wgt>
<wgt id='1172'> +7.3576162e+04 </wgt>
<wgt id='1173'> +7.0385287e+04 </wgt>
<wgt id='1174'> +6.9384751e+04 </wgt>
<wgt id='1175'> +7.4102046e+04 </wgt>
<wgt id='1176'> +7.6086147e+04 </wgt>
<wgt id='1177'> +8.0849117e+04 </wgt>
<wgt id='1178'> +7.1653908e+04 </wgt>
<wgt id='1179'> +7.3505387e+04 </wgt>
<wgt id='1180'> +6.9327663e+04 </wgt>
<wgt id='1181'> +6.9648305e+04 </wgt>
<wgt id='1182'> +7.5040228e+04 </wgt>
<wgt id='1183'> +7.3747289e+04 </wgt>
<wgt id='1184'> +7.2341313e+04 </wgt>
<wgt id='1185'> +7.0263868e+04 </wgt>
<wgt id='1186'> +7.8993401e+04 </wgt>
<wgt id='1187'> +7.9852492e+04 </wgt>
<wgt id='1188'> +7.6592488e+04 </wgt>
<wgt id='1189'> +6.9622166e+04 </wgt>
<wgt id='1190'> +7.4235712e+04 </wgt>
<wgt id='1191'> +7.4008489e+04 </wgt>
<wgt id='1192'> +7.8166297e+04 </wgt>
<wgt id='1193'> +7.1138577e+04 </wgt>
<wgt id='1194'> +7.6805313e+04 </wgt>
<wgt id='1195'> +7.3073397e+04 </wgt>
<wgt id='1196'> +7.3959145e+04 </wgt>
<wgt id='1197'> +8.0109075e+04 </wgt>
<wgt id='1198'> +7.5257494e+04 </wgt>
<wgt id='1199'> +7.2464955e+04 </wgt>
<wgt id='1200'> +8.3301942e+04 </wgt>
<wgt id='1201'> +6.8099866e+04 </wgt>
<wgt id='1202'> +7.8391050e+04 </wgt>
<wgt id='1203'> +7.5581221e+04 </wgt>
<wgt id='1204'> +7.8800284e+04 </wgt>
<wgt id='1205'> +8.0857916e+04 </wgt>
<wgt id='1206'> +7.5888367e+04 </wgt>
<wgt id='1207'> +6.7768575e+04 </wgt>
<wgt id='1208'> +7.6596496e+04 </wgt>
<wgt id='1209'> +7.6837914e+04 </wgt>
<wgt id='1210'> +6.8303223e+04 </wgt>
<wgt id='1211'> +7.3167298e+04 </wgt>
<wgt id='1212'> +7.6494600e+04 </wgt>
<wgt id='1213'> +7.4763226e+04 </wgt>
<wgt id='1214'> +7.4552565e+04 </wgt>
<wgt id='1215'> +6.6141111e+04 </wgt>
<wgt id='1216'> +6.8453182e+04 </wgt>
<wgt id='1217'> +6.9428526e+04 </wgt>
<wgt id='1218'> +7.0926324e+04 </wgt>
<wgt id='1219'> +7.3295556e+04 </wgt>
<wgt id='1220'> +7.4992254e+04 </wgt>
<wgt id='1221'> +7.7036709e+04 </wgt>
<wgt id='1222'> +7.8767875e+04 </wgt>
<wgt id='1223'> +7.2633440e+04 </wgt>
<wgt id='1224'> +7.2979448e+04 </wgt>
<wgt id='1225'> +7.2264221e+04 </wgt>
<wgt id='1226'> +7.2538962e+04 </wgt>
<wgt id='1227'> +7.1886361e+04 </wgt>
<wgt id='1228'> +7.2335402e+04 </wgt>
<wgt id='1229'> +7.3214444e+04 </wgt>
<wgt id='1230'> +7.2253405e+04 </wgt>
<wgt id='1231'> +7.2946050e+04 </wgt>
<wgt id='1232'> +7.2342774e+04 </wgt>
<wgt id='1233'> +7.4271898e+04 </wgt>
<wgt id='1234'> +7.3074590e+04 </wgt>
<wgt id='1235'> +7.2012029e+04 </wgt>
<wgt id='1236'> +7.2307888e+04 </wgt>
<wgt id='1237'> +7.1604485e+04 </wgt>
<wgt id='1238'> +7.4321170e+04 </wgt>
<wgt id='1239'> +7.1161550e+04 </wgt>
<wgt id='1240'> +7.3072558e+04 </wgt>
<wgt id='1241'> +7.1883110e+04 </wgt>
<wgt id='1242'> +7.3213262e+04 </wgt>
<wgt id='1243'> +7.3975283e+04 </wgt>
<wgt id='1244'> +7.1176072e+04 </wgt>
<wgt id='1245'> +7.2336935e+04 </wgt>
<wgt id='1246'> +7.2763456e+04 </wgt>
<wgt id='1247'> +7.2420588e+04 </wgt>
<wgt id='1248'> +7.3281749e+04 </wgt>
<wgt id='1249'> +7.2557386e+04 </wgt>
<wgt id='1250'> +7.3144594e+04 </wgt>
<wgt id='1251'> +7.2859841e+04 </wgt>
<wgt id='1252'> +7.2737267e+04 </wgt>
<wgt id='1253'> +7.2464034e+04 </wgt>
<wgt id='1254'> +7.2714325e+04 </wgt>
<wgt id='1255'> +7.2527574e+04 </wgt>
<wgt id='1256'> +7.2330775e+04 </wgt>
<wgt id='1257'> +7.2906655e+04 </wgt>
<wgt id='1258'> +7.2483773e+04 </wgt>
<wgt id='1259'> +7.2296839e+04 </wgt>
<wgt id='1260'> +7.2217496e+04 </wgt>
<wgt id='1261'> +7.2598503e+04 </wgt>
<wgt id='1262'> +7.2331902e+04 </wgt>
<wgt id='1263'> +7.2227785e+04 </wgt>
<wgt id='1264'> +7.2708854e+04 </wgt>
<wgt id='1265'> +7.2509559e+04 </wgt>
<wgt id='1266'> +7.2362582e+04 </wgt>
<wgt id='1267'> +7.2515863e+04 </wgt>
<wgt id='1268'> +7.2590354e+04 </wgt>
<wgt id='1269'> +7.2563290e+04 </wgt>
<wgt id='1270'> +7.2652244e+04 </wgt>
<wgt id='1271'> +7.2649418e+04 </wgt>
<wgt id='1272'> +7.2674620e+04 </wgt>
<wgt id='1273'> +7.2724529e+04 </wgt>
<wgt id='1274'> +7.2688525e+04 </wgt>
<wgt id='1275'> +7.2461623e+04 </wgt>
<wgt id='1276'> +7.2469723e+04 </wgt>
<wgt id='1277'> +7.2678435e+04 </wgt>
<wgt id='1278'> +7.2679512e+04 </wgt>
<wgt id='1279'> +7.2720419e+04 </wgt>
<wgt id='1280'> +7.2619123e+04 </wgt>
<wgt id='1281'> +7.2587719e+04 </wgt>
<wgt id='1282'> +7.2593307e+04 </wgt>
<wgt id='1283'> +7.2621549e+04 </wgt>
<wgt id='1284'> +7.2676898e+04 </wgt>
<wgt id='1285'> +7.2682889e+04 </wgt>
<wgt id='1286'> +7.2603158e+04 </wgt>
<wgt id='1287'> +7.2542131e+04 </wgt>
<wgt id='1288'> +7.2740614e+04 </wgt>
<wgt id='1289'> +7.2586091e+04 </wgt>
<wgt id='1290'> +7.2521574e+04 </wgt>
<wgt id='1291'> +7.2554691e+04 </wgt>
<wgt id='1292'> +7.2643431e+04 </wgt>
<wgt id='1293'> +7.2577454e+04 </wgt>
<wgt id='1294'> +7.2597970e+04 </wgt>
<wgt id='1295'> +7.2634027e+04 </wgt>
<wgt id='1296'> +7.2676018e+04 </wgt>
<wgt id='1297'> +7.2759260e+04 </wgt>
<wgt id='1298'> +7.2627679e+04 </wgt>
<wgt id='1299'> +7.2622167e+04 </wgt>
<wgt id='1300'> +7.2646023e+04 </wgt>
<wgt id='1301'> +7.2541394e+04 </wgt>
<wgt id='1302'> +7.2681213e+04 </wgt>
<wgt id='1303'> +7.2647678e+04 </wgt>
<wgt id='1304'> +7.2564192e+04 </wgt>
<wgt id='1305'> +7.2604174e+04 </wgt>
<wgt id='1306'> +7.2596108e+04 </wgt>
<wgt id='1307'> +7.2607526e+04 </wgt>
<wgt id='1308'> +7.2674046e+04 </wgt>
<wgt id='1309'> +7.2673230e+04 </wgt>
<wgt id='1310'> +7.2600637e+04 </wgt>
<wgt id='1311'> +7.2696381e+04 </wgt>
<wgt id='1312'> +7.2648834e+04 </wgt>
<wgt id='1313'> +7.2587797e+04 </wgt>
<wgt id='1314'> +7.2643522e+04 </wgt>
<wgt id='1315'> +7.2642122e+04 </wgt>
<wgt id='1316'> +7.2600768e+04 </wgt>
<wgt id='1317'> +7.2606429e+04 </wgt>
<wgt id='1318'> +7.2592012e+04 </wgt>
<wgt id='1319'> +7.2622489e+04 </wgt>
<wgt id='1320'> +7.2617244e+04 </wgt>
<wgt id='1321'> +7.2620761e+04 </wgt>
<wgt id='1322'> +7.2625850e+04 </wgt>
<wgt id='1323'> +7.2616799e+04 </wgt>
<wgt id='1324'> +7.1628829e+04 </wgt>
<wgt id='1325'> +7.3787916e+04 </wgt>
<wgt id='1326'> +6.8318483e+04 </wgt>
<wgt id='1327'> +6.6588223e+04 </wgt>
<wgt id='1328'> +7.6621508e+04 </wgt>
<wgt id='1329'> +7.6871414e+04 </wgt>
<wgt id='1330'> +7.4266848e+04 </wgt>
<wgt id='1331'> +7.7899593e+04 </wgt>
<wgt id='1332'> +7.5467276e+04 </wgt>
<wgt id='1333'> +7.3496398e+04 </wgt>
<wgt id='1334'> +7.8872326e+04 </wgt>
<wgt id='1335'> +7.7069706e+04 </wgt>
<wgt id='1336'> +7.5563793e+04 </wgt>
<wgt id='1337'> +7.4591648e+04 </wgt>
<wgt id='1338'> +7.9384329e+04 </wgt>
<wgt id='1339'> +7.8334632e+04 </wgt>
<wgt id='1340'> +7.8520506e+04 </wgt>
<wgt id='1341'> +7.9979261e+04 </wgt>
<wgt id='1342'> +7.2746329e+04 </wgt>
<wgt id='1343'> +7.7815242e+04 </wgt>
<wgt id='1344'> +7.5136852e+04 </wgt>
<wgt id='1345'> +7.8739989e+04 </wgt>
<wgt id='1346'> +7.6987064e+04 </wgt>
<wgt id='1347'> +7.6276839e+04 </wgt>
<wgt id='1348'> +7.6904420e+04 </wgt>
<wgt id='1349'> +7.8897663e+04 </wgt>
<wgt id='1350'> +7.7948831e+04 </wgt>
<wgt id='1351'> +7.7251252e+04 </wgt>
<wgt id='1352'> +7.3718211e+04 </wgt>
<wgt id='1353'> +7.3770288e+04 </wgt>
<wgt id='1354'> +7.7793947e+04 </wgt>
<wgt id='1355'> +7.7659196e+04 </wgt>
<wgt id='1356'> +7.6676926e+04 </wgt>
<wgt id='1357'> +7.7295818e+04 </wgt>
<wgt id='1358'> +7.5345656e+04 </wgt>
<wgt id='1359'> +7.9192120e+04 </wgt>
<wgt id='1360'> +7.5192071e+04 </wgt>
<wgt id='1361'> +7.2075729e+04 </wgt>
<wgt id='1362'> +7.5572613e+04 </wgt>
<wgt id='1363'> +7.8011360e+04 </wgt>
<wgt id='1364'> +7.8560200e+04 </wgt>
<wgt id='1365'> +7.3765592e+04 </wgt>
<wgt id='1366'> +7.5642867e+04 </wgt>
<wgt id='1367'> +7.4884811e+04 </wgt>
<wgt id='1368'> +7.7613343e+04 </wgt>
<wgt id='1369'> +7.4325074e+04 </wgt>
<wgt id='1370'> +7.8110644e+04 </wgt>
<wgt id='1371'> +7.3591254e+04 </wgt>
<wgt id='1372'> +7.3075540e+04 </wgt>
<wgt id='1373'> +7.6632749e+04 </wgt>
<wgt id='1374'> +7.7778218e+04 </wgt>
<wgt id='1375'> +7.5387521e+04 </wgt>
<wgt id='1376'> +7.7488579e+04 </wgt>
<wgt id='1377'> +7.6596015e+04 </wgt>
<wgt id='1378'> +8.0730623e+04 </wgt>
<wgt id='1379'> +7.7044282e+04 </wgt>
<wgt id='1380'> +7.2423002e+04 </wgt>
<wgt id='1381'> +7.3691215e+04 </wgt>
<wgt id='1382'> +8.1246719e+04 </wgt>
<wgt id='1383'> +7.8950071e+04 </wgt>
<wgt id='1384'> +7.6902571e+04 </wgt>
<wgt id='1385'> +8.3607240e+04 </wgt>
<wgt id='1386'> +7.3633945e+04 </wgt>
<wgt id='1387'> +7.5989678e+04 </wgt>
<wgt id='1388'> +7.5207993e+04 </wgt>
<wgt id='1389'> +7.5447076e+04 </wgt>
<wgt id='1390'> +8.1184390e+04 </wgt>
<wgt id='1391'> +7.3917892e+04 </wgt>
<wgt id='1392'> +8.0862900e+04 </wgt>
<wgt id='1393'> +8.1377069e+04 </wgt>
<wgt id='1394'> +7.3765592e+04 </wgt>
<wgt id='1395'> +7.7935230e+04 </wgt>
<wgt id='1396'> +7.5680846e+04 </wgt>
<wgt id='1397'> +7.5664719e+04 </wgt>
<wgt id='1398'> +7.6189052e+04 </wgt>
<wgt id='1399'> +7.7166960e+04 </wgt>
<wgt id='1400'> +7.5743883e+04 </wgt>
<wgt id='1401'> +7.7681080e+04 </wgt>
<wgt id='1402'> +7.4784893e+04 </wgt>
<wgt id='1403'> +7.6710760e+04 </wgt>
<wgt id='1404'> +7.8059085e+04 </wgt>
<wgt id='1405'> +7.1228443e+04 </wgt>
<wgt id='1406'> +7.5460958e+04 </wgt>
<wgt id='1407'> +7.5463954e+04 </wgt>
<wgt id='1408'> +7.6121899e+04 </wgt>
<wgt id='1409'> +7.6914061e+04 </wgt>
<wgt id='1410'> +7.1945972e+04 </wgt>
<wgt id='1411'> +7.6164468e+04 </wgt>
<wgt id='1412'> +7.5660519e+04 </wgt>
<wgt id='1413'> +7.7064836e+04 </wgt>
<wgt id='1414'> +8.1130648e+04 </wgt>
<wgt id='1415'> +7.8472474e+04 </wgt>
<wgt id='1416'> +7.7278682e+04 </wgt>
<wgt id='1417'> +7.7471120e+04 </wgt>
<wgt id='1418'> +7.5019010e+04 </wgt>
<wgt id='1419'> +7.9331966e+04 </wgt>
<wgt id='1420'> +8.1156614e+04 </wgt>
<wgt id='1421'> +7.5167336e+04 </wgt>
<wgt id='1422'> +7.7935837e+04 </wgt>
<wgt id='1423'> +7.6448123e+04 </wgt>
<wgt id='1424'> +7.9364108e+04 </wgt>
<wgt id='1425'> +7.5111752e+04 </wgt>
<wgt id='1426'> +7.7658558e+04 </wgt>
<wgt id='1427'> +7.5740723e+04 </wgt>
<wgt id='1428'> +7.2563401e+04 </wgt>
<wgt id='1429'> +7.5834181e+04 </wgt>
<wgt id='1430'> +7.7909150e+04 </wgt>
<wgt id='1431'> +7.6860557e+04 </wgt>
<wgt id='1432'> +7.6743851e+04 </wgt>
<wgt id='1433'> +7.7526379e+04 </wgt>
<wgt id='1434'> +7.6617440e+04 </wgt>
<wgt id='1435'> +7.7041807e+04 </wgt>
<wgt id='1436'> +7.8488837e+04 </wgt>
<wgt id='1437'> +7.6221220e+04 </wgt>
<wgt id='1438'> +7.6728079e+04 </wgt>
<wgt id='1439'> +7.7113371e+04 </wgt>
<wgt id='1440'> +7.6929935e+04 </wgt>
<wgt id='1441'> +7.6793319e+04 </wgt>
<wgt id='1442'> +7.7804556e+04 </wgt>
<wgt id='1443'> +7.7019315e+04 </wgt>
<wgt id='1444'> +7.7360025e+04 </wgt>
<wgt id='1445'> +7.6397292e+04 </wgt>
<wgt id='1446'> +7.6948900e+04 </wgt>
<wgt id='1447'> +7.6823744e+04 </wgt>
<wgt id='1448'> +7.6846847e+04 </wgt>
<wgt id='1449'> +7.6913883e+04 </wgt>
<wgt id='1450'> +7.6799753e+04 </wgt>
<wgt id='1451'> +7.6906251e+04 </wgt>
<wgt id='1452'> +7.6770817e+04 </wgt>
<wgt id='1453'> +7.6867085e+04 </wgt>
<wgt id='1454'> +7.6990726e+04 </wgt>
<wgt id='1455'> +7.6901297e+04 </wgt>
<wgt id='1456'> +7.6863132e+04 </wgt>
<wgt id='1457'> +7.6907616e+04 </wgt>
<wgt id='1458'> +7.6779211e+04 </wgt>
<wgt id='1459'> +7.6860253e+04 </wgt>
<wgt id='1460'> +7.6782368e+04 </wgt>
<wgt id='1461'> +7.6917609e+04 </wgt>
<wgt id='1462'> +7.6843652e+04 </wgt>
<wgt id='1463'> +7.6896594e+04 </wgt>
<wgt id='1464'> +7.6795704e+04 </wgt>
<wgt id='1465'> +7.6852246e+04 </wgt>
<wgt id='1466'> +7.6836465e+04 </wgt>
<wgt id='1467'> +7.6855380e+04 </wgt>
<wgt id='1468'> +7.6874938e+04 </wgt>
<wgt id='1469'> +7.6878864e+04 </wgt>
<wgt id='1470'> +7.6845613e+04 </wgt>
<wgt id='1471'> +7.6900920e+04 </wgt>
<wgt id='1472'> +7.6867321e+04 </wgt>
<wgt id='1473'> +7.6825959e+04 </wgt>
<wgt id='1474'> +7.6861144e+04 </wgt>
<wgt id='1475'> +7.6892907e+04 </wgt>
<wgt id='1476'> +7.6847560e+04 </wgt>
<wgt id='1477'> +7.6859717e+04 </wgt>
<wgt id='1478'> +7.6839182e+04 </wgt>
<wgt id='1479'> +7.6851227e+04 </wgt>
<wgt id='1480'> +7.6861438e+04 </wgt>
<wgt id='1481'> +7.6857326e+04 </wgt>
<wgt id='1482'> +7.5834181e+04 </wgt>
<wgt id='1483'> +7.7909150e+04 </wgt>
<wgt id='1484'> +7.6979406e+04 </wgt>
<wgt id='1485'> +7.5938380e+04 </wgt>
<wgt id='1486'> +7.6467951e+04 </wgt>
<wgt id='1487'> +7.6435249e+04 </wgt>
<wgt id='1488'> +7.7946570e+04 </wgt>
<wgt id='1489'> +7.7566870e+04 </wgt>
<wgt id='1490'> +7.6084346e+04 </wgt>
<wgt id='1491'> +8.0947616e+04 </wgt>
<wgt id='1492'> +7.7425725e+04 </wgt>
<wgt id='1493'> +7.5303385e+04 </wgt>
<wgt id='1494'> +7.7541763e+04 </wgt>
<wgt id='1495'> +8.1144566e+04 </wgt>
<wgt id='1496'> +7.9154855e+04 </wgt>
<wgt id='1497'> +8.1015889e+04 </wgt>
<wgt id='1498'> +7.4593228e+04 </wgt>
<wgt id='1499'> +7.5819899e+04 </wgt>
<wgt id='1500'> +7.5566032e+04 </wgt>
<wgt id='1501'> +7.9342329e+04 </wgt>
<wgt id='1502'> +7.6675535e+04 </wgt>
<wgt id='1503'> +7.9137997e+04 </wgt>
<wgt id='1504'> +7.7214533e+04 </wgt>
<wgt id='1505'> +7.5761754e+04 </wgt>
<wgt id='1506'> +7.8392565e+04 </wgt>
<wgt id='1507'> +7.7254006e+04 </wgt>
<wgt id='1508'> +8.1408702e+04 </wgt>
<wgt id='1509'> +7.4939591e+04 </wgt>
<wgt id='1510'> +7.7903799e+04 </wgt>
<wgt id='1511'> +7.5665141e+04 </wgt>
<wgt id='1512'> +7.4569512e+04 </wgt>
<wgt id='1513'> +8.0302907e+04 </wgt>
<wgt id='1514'> +7.9089229e+04 </wgt>
<wgt id='1515'> +7.7518097e+04 </wgt>
<wgt id='1516'> +7.8793635e+04 </wgt>
<wgt id='1517'> +7.4292762e+04 </wgt>
<wgt id='1518'> +7.5553843e+04 </wgt>
<wgt id='1519'> +7.5027037e+04 </wgt>
<wgt id='1520'> +7.5080086e+04 </wgt>
<wgt id='1521'> +7.8252830e+04 </wgt>
<wgt id='1522'> +7.6521562e+04 </wgt>
<wgt id='1523'> +7.7413213e+04 </wgt>
<wgt id='1524'> +7.6112479e+04 </wgt>
<wgt id='1525'> +7.4214946e+04 </wgt>
<wgt id='1526'> +7.5304644e+04 </wgt>
<wgt id='1527'> +7.5977834e+04 </wgt>
<wgt id='1528'> +7.6166817e+04 </wgt>
<wgt id='1529'> +7.7293531e+04 </wgt>
<wgt id='1530'> +7.6303192e+04 </wgt>
<wgt id='1531'> +7.7819205e+04 </wgt>
<wgt id='1532'> +7.5948646e+04 </wgt>
<wgt id='1533'> +7.4615665e+04 </wgt>
<wgt id='1534'> +7.7556520e+04 </wgt>
<wgt id='1535'> +7.8600269e+04 </wgt>
<wgt id='1536'> +7.5529284e+04 </wgt>
<wgt id='1537'> +7.7770292e+04 </wgt>
<wgt id='1538'> +7.8079703e+04 </wgt>
<wgt id='1539'> +7.6135009e+04 </wgt>
<wgt id='1540'> +7.7790171e+04 </wgt>
<wgt id='1541'> +7.4675184e+04 </wgt>
<wgt id='1542'> +7.8605513e+04 </wgt>
<wgt id='1543'> +7.6392216e+04 </wgt>
<wgt id='1544'> +7.5427984e+04 </wgt>
<wgt id='1545'> +7.5126255e+04 </wgt>
<wgt id='1546'> +7.5792229e+04 </wgt>
<wgt id='1547'> +7.6867280e+04 </wgt>
<wgt id='1548'> +7.6241690e+04 </wgt>
<wgt id='1549'> +7.8498820e+04 </wgt>
<wgt id='1550'> +7.6551564e+04 </wgt>
<wgt id='1551'> +7.6618505e+04 </wgt>
<wgt id='1552'> +7.5126347e+04 </wgt>
<wgt id='1553'> +7.7302833e+04 </wgt>
<wgt id='1554'> +7.6678637e+04 </wgt>
<wgt id='1555'> +7.9555216e+04 </wgt>
<wgt id='1556'> +7.8663188e+04 </wgt>
<wgt id='1557'> +7.7661291e+04 </wgt>
<wgt id='1558'> +7.4290593e+04 </wgt>
<wgt id='1559'> +7.5744296e+04 </wgt>
<wgt id='1560'> +7.3445616e+04 </wgt>
<wgt id='1561'> +7.7176349e+04 </wgt>
<wgt id='1562'> +7.6868728e+04 </wgt>
<wgt id='1563'> +7.8757571e+04 </wgt>
<wgt id='1564'> +7.6117271e+04 </wgt>
<wgt id='1565'> +7.3935403e+04 </wgt>
<wgt id='1566'> +7.6360809e+04 </wgt>
<wgt id='1567'> +7.8987103e+04 </wgt>
<wgt id='1568'> +7.7391000e+04 </wgt>
<wgt id='1569'> +7.7792191e+04 </wgt>
<wgt id='1570'> +7.5286264e+04 </wgt>
<wgt id='1571'> +7.7426464e+04 </wgt>
<wgt id='1572'> +7.8662430e+04 </wgt>
<wgt id='1573'> +7.7892417e+04 </wgt>
<wgt id='1574'> +7.8641091e+04 </wgt>
<wgt id='1575'> +7.7068094e+04 </wgt>
<wgt id='1576'> +7.5897852e+04 </wgt>
<wgt id='1577'> +7.8514120e+04 </wgt>
<wgt id='1578'> +7.5445089e+04 </wgt>
<wgt id='1579'> +7.8647038e+04 </wgt>
<wgt id='1580'> +7.7750098e+04 </wgt>
<wgt id='1581'> +7.4777697e+04 </wgt>
<wgt id='1582'> +7.6778633e+04 </wgt>
<wgt id='1583'> +7.6573161e+04 </wgt>
<wgt id='1584'> +7.9612644e+04 </wgt>
<wgt id='1585'> +7.3768220e+04 </wgt>
<wgt id='1586'> +8.3557556e+04 </wgt>
<wgt id='1587'> +7.4701088e+04 </wgt>
<wgt id='1588'> +7.5834181e+04 </wgt>
<wgt id='1589'> +7.6394657e+04 </wgt>
<wgt id='1590'> +7.7880289e+04 </wgt>
<wgt id='1591'> +7.7909150e+04 </wgt>
<wgt id='1592'> +7.8818979e+04 </wgt>
<wgt id='1593'> +6.8799769e+04 </wgt>
<wgt id='1594'> +6.7831747e+04 </wgt>
<wgt id='1595'> +6.9220597e+04 </wgt>
<wgt id='1596'> +6.7758673e+04 </wgt>
<wgt id='1597'> +6.6925357e+04 </wgt>
<wgt id='1598'> +7.2927165e+04 </wgt>
<wgt id='1599'> +6.6054509e+04 </wgt>
<wgt id='1600'> +7.4569892e+04 </wgt>
<wgt id='1601'> +6.4220279e+04 </wgt>
<wgt id='1602'> +7.2321681e+04 </wgt>
<wgt id='1603'> +6.6145214e+04 </wgt>
<wgt id='1604'> +6.8580322e+04 </wgt>
<wgt id='1605'> +6.9235062e+04 </wgt>
<wgt id='1606'> +6.5594683e+04 </wgt>
<wgt id='1607'> +7.0503055e+04 </wgt>
<wgt id='1608'> +6.6446156e+04 </wgt>
<wgt id='1609'> +6.7478876e+04 </wgt>
<wgt id='1610'> +6.8609096e+04 </wgt>
<wgt id='1611'> +6.9014584e+04 </wgt>
<wgt id='1612'> +6.7657784e+04 </wgt>
<wgt id='1613'> +7.0313567e+04 </wgt>
<wgt id='1614'> +6.7592051e+04 </wgt>
<wgt id='1615'> +7.1033277e+04 </wgt>
<wgt id='1616'> +6.9951974e+04 </wgt>
<wgt id='1617'> +6.6899081e+04 </wgt>
<wgt id='1618'> +6.8367353e+04 </wgt>
<wgt id='1619'> +7.0050345e+04 </wgt>
<wgt id='1620'> +6.7988190e+04 </wgt>
<wgt id='1621'> +6.8676655e+04 </wgt>
<wgt id='1622'> +6.6994398e+04 </wgt>
<wgt id='1623'> +6.9749666e+04 </wgt>
<wgt id='1624'> +6.9496232e+04 </wgt>
<wgt id='1625'> +6.5584145e+04 </wgt>
<wgt id='1626'> +6.8162881e+04 </wgt>
<wgt id='1627'> +6.9140699e+04 </wgt>
<wgt id='1628'> +6.7842193e+04 </wgt>
<wgt id='1629'> +6.7455766e+04 </wgt>
<wgt id='1630'> +6.4178563e+04 </wgt>
<wgt id='1631'> +7.4388266e+04 </wgt>
<wgt id='1632'> +6.4997315e+04 </wgt>
<wgt id='1633'> +7.3456760e+04 </wgt>
<wgt id='1634'> +6.6789190e+04 </wgt>
<wgt id='1635'> +7.0865659e+04 </wgt>
<wgt id='1636'> +6.9446619e+04 </wgt>
<wgt id='1637'> +6.7822461e+04 </wgt>
<wgt id='1638'> +6.9351984e+04 </wgt>
<wgt id='1639'> +6.6674638e+04 </wgt>
<wgt id='1640'> +6.6164498e+04 </wgt>
<wgt id='1641'> +7.0426360e+04 </wgt>
<wgt id='1642'> +7.0218136e+04 </wgt>
<wgt id='1643'> +6.7193957e+04 </wgt>
<wgt id='1644'> +6.4454938e+04 </wgt>
<wgt id='1645'> +7.4863450e+04 </wgt>
<wgt id='1646'> +6.6401824e+04 </wgt>
<wgt id='1647'> +6.9052348e+04 </wgt>
<wgt id='1648'> +6.7183612e+04 </wgt>
<wgt id='1649'> +6.9550576e+04 </wgt>
<wgt id='1650'> +6.8498583e+04 </wgt>
<wgt id='1651'> +6.9120058e+04 </wgt>
<wgt id='1652'> +6.8530686e+04 </wgt>
<wgt id='1653'> +6.8716013e+04 </wgt>
<wgt id='1654'> +6.8789271e+04 </wgt>
<wgt id='1655'> +6.8701937e+04 </wgt>
<wgt id='1656'> +7.8019982e+04 </wgt>
<wgt id='1657'> +7.7931351e+04 </wgt>
<wgt id='1658'> +7.7234737e+04 </wgt>
<wgt id='1659'> +7.7772472e+04 </wgt>
<wgt id='1660'> +7.8155061e+04 </wgt>
<wgt id='1661'> +7.6022258e+04 </wgt>
<wgt id='1662'> +7.8933427e+04 </wgt>
<wgt id='1663'> +7.7522522e+04 </wgt>
<wgt id='1664'> +7.7501540e+04 </wgt>
<wgt id='1665'> +7.7373515e+04 </wgt>
<wgt id='1666'> +7.8032944e+04 </wgt>
<wgt id='1667'> +7.7192745e+04 </wgt>
<wgt id='1668'> +7.8594660e+04 </wgt>
<wgt id='1669'> +7.6158795e+04 </wgt>
<wgt id='1670'> +8.0551589e+04 </wgt>
<wgt id='1671'> +7.7803424e+04 </wgt>
<wgt id='1672'> +7.8014582e+04 </wgt>
<wgt id='1673'> +7.9462741e+04 </wgt>
<wgt id='1674'> +7.7061594e+04 </wgt>
<wgt id='1675'> +7.7692754e+04 </wgt>
<wgt id='1676'> +7.6675511e+04 </wgt>
<wgt id='1677'> +7.8879903e+04 </wgt>
<wgt id='1678'> +7.6616302e+04 </wgt>
<wgt id='1679'> +7.9979682e+04 </wgt>
<wgt id='1680'> +7.6592933e+04 </wgt>
<wgt id='1681'> +7.7994130e+04 </wgt>
<wgt id='1682'> +7.7310427e+04 </wgt>
<wgt id='1683'> +7.7993327e+04 </wgt>
<wgt id='1684'> +7.7378155e+04 </wgt>
<wgt id='1685'> +7.8885581e+04 </wgt>
<wgt id='1686'> +7.5984418e+04 </wgt>
<wgt id='1687'> +7.4805896e+04 </wgt>
<wgt id='1688'> +8.2745286e+04 </wgt>
<wgt id='1689'> +7.5486338e+04 </wgt>
<wgt id='1690'> +8.0927881e+04 </wgt>
<wgt id='1691'> +7.7351197e+04 </wgt>
<wgt id='1692'> +7.8139037e+04 </wgt>
<wgt id='1693'> +7.2614116e+04 </wgt>
<wgt id='1694'> +8.4408304e+04 </wgt>
<wgt id='1695'> +7.7545984e+04 </wgt>
<wgt id='1696'> +7.8099141e+04 </wgt>
<wgt id='1697'> +7.6597116e+04 </wgt>
<wgt id='1698'> +7.9704489e+04 </wgt>
<wgt id='1699'> +7.7592783e+04 </wgt>
<wgt id='1700'> +7.6173673e+04 </wgt>
<wgt id='1701'> +8.0861943e+04 </wgt>
<wgt id='1702'> +7.5750777e+04 </wgt>
<wgt id='1703'> +7.8659475e+04 </wgt>
<wgt id='1704'> +7.7746558e+04 </wgt>
<wgt id='1705'> +7.7794199e+04 </wgt>
<wgt id='1706'> +7.7224488e+04 </wgt>
<wgt id='1707'> +7.7423264e+04 </wgt>
<wgt id='1708'> +7.8151955e+04 </wgt>
<wgt id='1709'> +7.6498976e+04 </wgt>
<wgt id='1710'> +7.7795957e+04 </wgt>
<wgt id='1711'> +7.6822349e+04 </wgt>
<wgt id='1712'> +7.8254399e+04 </wgt>
<wgt id='1713'> +7.6918786e+04 </wgt>
<wgt id='1714'> +7.8371787e+04 </wgt>
<wgt id='1715'> +7.6786140e+04 </wgt>
<wgt id='1716'> +6.9821440e+04 </wgt>
<wgt id='1717'> +7.8349706e+04 </wgt>
<wgt id='1718'> +7.8322609e+04 </wgt>
<wgt id='1719'> +7.8384451e+04 </wgt>
<wgt id='1720'> +7.9084496e+04 </wgt>
<wgt id='1721'> +7.7678567e+04 </wgt>
<wgt id='1722'> +7.9106240e+04 </wgt>
<wgt id='1723'> +7.7109733e+04 </wgt>
<wgt id='1724'> +7.7818599e+04 </wgt>
<wgt id='1725'> +7.8781529e+04 </wgt>
<wgt id='1726'> +7.7695316e+04 </wgt>
<wgt id='1727'> +7.9024489e+04 </wgt>
<wgt id='1728'> +7.8098632e+04 </wgt>
<wgt id='1729'> +7.8592599e+04 </wgt>
<wgt id='1730'> +7.8323890e+04 </wgt>
<wgt id='1731'> +7.8368457e+04 </wgt>
<wgt id='1732'> +7.8193944e+04 </wgt>
<wgt id='1733'> +7.8193944e+04 </wgt>
<wgt id='1734'> +7.8403086e+04 </wgt>
<wgt id='1735'> +7.8310562e+04 </wgt>
<wgt id='1736'> +7.8722363e+04 </wgt>
<wgt id='1737'> +7.7840995e+04 </wgt>
<wgt id='1738'> +7.8369119e+04 </wgt>
<wgt id='1739'> +7.8307179e+04 </wgt>
<wgt id='1740'> +7.8260537e+04 </wgt>
<wgt id='1741'> +7.8565400e+04 </wgt>
<wgt id='1742'> +7.8210920e+04 </wgt>
<wgt id='1743'> +7.8516776e+04 </wgt>
<wgt id='1744'> +7.8211964e+04 </wgt>
<wgt id='1745'> +7.8720924e+04 </wgt>
<wgt id='1746'> +7.7839800e+04 </wgt>
<wgt id='1747'> +7.8639367e+04 </wgt>
<wgt id='1748'> +7.8528155e+04 </wgt>
<wgt id='1749'> +7.7753221e+04 </wgt>
<wgt id='1750'> +7.8202044e+04 </wgt>
<wgt id='1751'> +7.8509036e+04 </wgt>
<wgt id='1752'> +7.8274146e+04 </wgt>
<wgt id='1753'> +7.8456375e+04 </wgt>
<wgt id='1754'> +7.8400958e+04 </wgt>
<wgt id='1755'> +7.8323601e+04 </wgt>
<wgt id='1756'> +7.8414274e+04 </wgt>
<wgt id='1757'> +7.8224329e+04 </wgt>
<wgt id='1758'> +7.8661909e+04 </wgt>
<wgt id='1759'> +7.8053374e+04 </wgt>
<wgt id='1760'> +7.8044179e+04 </wgt>
<wgt id='1761'> +7.8696222e+04 </wgt>
<wgt id='1762'> +7.8292711e+04 </wgt>
<wgt id='1763'> +7.7995983e+04 </wgt>
<wgt id='1764'> +7.8387748e+04 </wgt>
<wgt id='1765'> +7.8176209e+04 </wgt>
<wgt id='1766'> +7.8230255e+04 </wgt>
<wgt id='1767'> +7.8488212e+04 </wgt>
<wgt id='1768'> +7.8313734e+04 </wgt>
<wgt id='1769'> +7.8326499e+04 </wgt>
<wgt id='1770'> +7.8261843e+04 </wgt>
<wgt id='1771'> +7.8072969e+04 </wgt>
<wgt id='1772'> +7.8518043e+04 </wgt>
<wgt id='1773'> +7.8285060e+04 </wgt>
<wgt id='1774'> +7.9477446e+04 </wgt>
<wgt id='1775'> +7.7591406e+04 </wgt>
<wgt id='1776'> +7.8174494e+04 </wgt>
<wgt id='1777'> +7.8393296e+04 </wgt>
<wgt id='1778'> +7.8485300e+04 </wgt>
<wgt id='1779'> +7.8090699e+04 </wgt>
<wgt id='1780'> +7.6322753e+04 </wgt>
<wgt id='1781'> +7.8128385e+04 </wgt>
<wgt id='1782'> +7.8349706e+04 </wgt>
<wgt id='1783'> +7.8335249e+04 </wgt>
<wgt id='1784'> +7.5221818e+04 </wgt>
<wgt id='1785'> +7.5705263e+04 </wgt>
<wgt id='1786'> +8.0424420e+04 </wgt>
<wgt id='1787'> +7.5459913e+04 </wgt>
<wgt id='1788'> +7.4799390e+04 </wgt>
<wgt id='1789'> +7.5009629e+04 </wgt>
<wgt id='1790'> +7.4951010e+04 </wgt>
<wgt id='1791'> +7.4835762e+04 </wgt>
<wgt id='1792'> +7.5927775e+04 </wgt>
<wgt id='1793'> +7.5183150e+04 </wgt>
<wgt id='1794'> +7.4977985e+04 </wgt>
<wgt id='1795'> +7.5247977e+04 </wgt>
<wgt id='1796'> +7.5423203e+04 </wgt>
<wgt id='1797'> +7.4275901e+04 </wgt>
<wgt id='1798'> +7.4965812e+04 </wgt>
<wgt id='1799'> +7.4776802e+04 </wgt>
<wgt id='1800'> +7.4395568e+04 </wgt>
<wgt id='1801'> +7.4125645e+04 </wgt>
<wgt id='1802'> +7.5538871e+04 </wgt>
<wgt id='1803'> +7.4865435e+04 </wgt>
<wgt id='1804'> +7.5227580e+04 </wgt>
<wgt id='1805'> +7.6239918e+04 </wgt>
<wgt id='1806'> +7.4682724e+04 </wgt>
<wgt id='1807'> +7.5364657e+04 </wgt>
<wgt id='1808'> +7.5058260e+04 </wgt>
<wgt id='1809'> +7.5123781e+04 </wgt>
<wgt id='1810'> +7.5390198e+04 </wgt>
<wgt id='1811'> +7.5324394e+04 </wgt>
<wgt id='1812'> +7.6186572e+04 </wgt>
<wgt id='1813'> +7.6147854e+04 </wgt>
<wgt id='1814'> +7.5069994e+04 </wgt>
<wgt id='1815'> +7.5153285e+04 </wgt>
<wgt id='1816'> +7.5275787e+04 </wgt>
<wgt id='1817'> +7.5128253e+04 </wgt>
<wgt id='1818'> +7.5539682e+04 </wgt>
<wgt id='1819'> +7.5225617e+04 </wgt>
<wgt id='1820'> +7.4303751e+04 </wgt>
<wgt id='1821'> +7.5153612e+04 </wgt>
<wgt id='1822'> +7.5094296e+04 </wgt>
<wgt id='1823'> +7.2343852e+04 </wgt>
<wgt id='1824'> +7.5270820e+04 </wgt>
<wgt id='1825'> +7.4694021e+04 </wgt>
<wgt id='1826'> +7.5719992e+04 </wgt>
<wgt id='1827'> +7.4489475e+04 </wgt>
<wgt id='1828'> +7.4534066e+04 </wgt>
<wgt id='1829'> +7.4442804e+04 </wgt>
<wgt id='1830'> +7.4496343e+04 </wgt>
<wgt id='1831'> +7.4480448e+04 </wgt>
<wgt id='1832'> +7.4639451e+04 </wgt>
<wgt id='1833'> +7.4337552e+04 </wgt>
<wgt id='1834'> +7.4551409e+04 </wgt>
<wgt id='1835'> +7.4422991e+04 </wgt>
<wgt id='1836'> +7.4655586e+04 </wgt>
<wgt id='1837'> +7.4322337e+04 </wgt>
<wgt id='1838'> +7.4626191e+04 </wgt>
<wgt id='1839'> +7.4350704e+04 </wgt>
<wgt id='1840'> +7.4274423e+04 </wgt>
<wgt id='1841'> +7.4702091e+04 </wgt>
<wgt id='1842'> +7.4357584e+04 </wgt>
<wgt id='1843'> +7.4571607e+04 </wgt>
<wgt id='1844'> +7.4523410e+04 </wgt>
<wgt id='1845'> +7.4435780e+04 </wgt>
<wgt id='1846'> +7.4314944e+04 </wgt>
<wgt id='1847'> +7.4655295e+04 </wgt>
<wgt id='1848'> +7.3990799e+04 </wgt>
<wgt id='1849'> +7.4872940e+04 </wgt>
<wgt id='1850'> +7.4839173e+04 </wgt>
<wgt id='1851'> +7.4129435e+04 </wgt>
<wgt id='1852'> +7.4680036e+04 </wgt>
<wgt id='1853'> +7.4120856e+04 </wgt>
<wgt id='1854'> +7.4795922e+04 </wgt>
<wgt id='1855'> +7.4272543e+04 </wgt>
<wgt id='1856'> +7.4851295e+04 </wgt>
<wgt id='1857'> +7.4836292e+04 </wgt>
<wgt id='1858'> +7.4852193e+04 </wgt>
<wgt id='1859'> +7.4793071e+04 </wgt>
<wgt id='1860'> +7.4855539e+04 </wgt>
<wgt id='1861'> +7.5130995e+04 </wgt>
<wgt id='1862'> +7.5204619e+04 </wgt>
<wgt id='1863'> +7.4310106e+04 </wgt>
<wgt id='1864'> +7.5032570e+04 </wgt>
<wgt id='1865'> +7.4956478e+04 </wgt>
<wgt id='1866'> +7.4856580e+04 </wgt>
<wgt id='1867'> +7.4857733e+04 </wgt>
<wgt id='1868'> +7.5056477e+04 </wgt>
<wgt id='1869'> +7.5016132e+04 </wgt>
<wgt id='1870'> +7.5017933e+04 </wgt>
<wgt id='1871'> +7.4901458e+04 </wgt>
<wgt id='1872'> +7.4954786e+04 </wgt>
<wgt id='1873'> +7.4859054e+04 </wgt>
<wgt id='1874'> +7.4800157e+04 </wgt>
<wgt id='1875'> +7.4912777e+04 </wgt>
<wgt id='1876'> +7.4572247e+04 </wgt>
<wgt id='1877'> +7.5277952e+04 </wgt>
<wgt id='1878'> +7.4430299e+04 </wgt>
<wgt id='1879'> +7.5037378e+04 </wgt>
<wgt id='1880'> +7.5196867e+04 </wgt>
<wgt id='1881'> +7.5365768e+04 </wgt>
<wgt id='1882'> +7.4875340e+04 </wgt>
<wgt id='1883'> +7.4657631e+04 </wgt>
<wgt id='1884'> +7.4980574e+04 </wgt>
<wgt id='1885'> +7.4046800e+04 </wgt>
<wgt id='1886'> +3.0982721e+04 </wgt>
<wgt id='1887'> +4.7429776e+04 </wgt>
<wgt id='1888'> +6.2006649e+04 </wgt>
<wgt id='1889'> +7.1270531e+04 </wgt>
</rwgt>
</event>
<event npLO=" -1 " npNLO=" 0 ">
 5      0 +7.4519530e+04 1.33254330e+01 7.55820760e-03 1.17981620e-01
        2 -1    0    0  501    0 +0.0000000000e+00 +0.0000000000e+00 +5.3412004407e+02 5.3412004407e+02 0.0000000000e+00 0.0000e+00 -1.0000e+00
       -1 -1    0    0    0  501 +0.0000000000e+00 +0.0000000000e+00 -3.7504949955e+00 3.7504949955e+00 0.0000000000e+00 0.0000e+00 1.0000e+00
       24  2    1    2    0    0 +0.0000000000e+00 +0.0000000000e+00 +5.3036954907e+02 5.3787053907e+02 8.9514569815e+01 0.0000e+00 0.0000e+00
      -13  1    3    3    0    0 +1.5442919007e+01 -3.5437406389e+01 +1.2963174495e+02 1.3527262405e+02 0.0000000000e+00 0.0000e+00 1.0000e+00
       14  1    3    3    0    0 -1.5442919007e+01 +3.5437406389e+01 +4.0073780412e+02 4.0259791501e+02 0.0000000000e+00 0.0000e+00 -1.0000e+00
#aMCatNLO 1  0  0  1  2 0.18946077E+02 0.00000000E+00 -9  5  0 0.00000000E+00 0.00000000E+00 0.00000000E+00 0.00000000E+00 0.00000000E+00
<rwgt>
<wgt id='1001'> +7.4519530e+04 </wgt>
<wgt id='1002'> +7.3551397e+04 </wgt>
<wgt id='1003'> +7.5716025e+04 </wgt>
<wgt id='1004'> +9.8553914e+04 </wgt>
<wgt id='1005'> +9.5959248e+04 </wgt>
<wgt id='1006'> +1.0176899e+05 </wgt>
<wgt id='1007'> +5.3955601e+04 </wgt>
<wgt id='1008'> +5.4228305e+04 </wgt>
<wgt id='1009'> +5.3612317e+04 </wgt>
<wgt id='1010'> +7.4519530e+04 </wgt>
<wgt id='1011'> +7.4496176e+04 </wgt>
<wgt id='1012'> +7.4620105e+04 </wgt>
<wgt id='1013'> +7.4181281e+04 </wgt>
<wgt id='1014'> +7.4692154e+04 </wgt>
<wgt id='1015'> +7.4311630e+04 </wgt>
<wgt id='1016'> +7.4572537e+04 </wgt>
<wgt id='1017'> +7.4475143e+04 </wgt>
<wgt id='1018'> +7.4371456e+04 </wgt>
<wgt id='1019'> +7.4446071e+04 </wgt>
<wgt id='1020'> +7.4269754e+04 </wgt>
<wgt id='1021'> +7.4432576e+04 </wgt>
<wgt id='1022'> +7.4568954e+04 </wgt>
<wgt id='1023'> +7.4580479e+04 </wgt>
<wgt id='1024'> +7.4591698e+04 </wgt>
<wgt id='1025'> +7.4808659e+04 </wgt>
<wgt id='1026'> +7.4349108e+04 </wgt>
<wgt id='1027'> +7.4504815e+04 </wgt>
<wgt id='1028'> +7.4650573e+04 </wgt>
<wgt id='1029'> +7.4673705e+04 </wgt>
<wgt id='1030'> +7.5047937e+04 </wgt>
<wgt id='1031'> +7.4705176e+04 </wgt>
<wgt id='1032'> +7.4672489e+04 </wgt>
<wgt id='1033'> +7.4437063e+04 </wgt>
<wgt id='1034'> +7.4681801e+04 </wgt>
<wgt id='1035'> +7.4382170e+04 </wgt>
<wgt id='1036'> +7.4258637e+04 </wgt>
<wgt id='1037'> +7.4992838e+04 </wgt>
<wgt id='1038'> +7.4638333e+04 </wgt>
<wgt id='1039'> +7.4669812e+04 </wgt>
<wgt id='1040'> +7.4318758e+04 </wgt>
<wgt id='1041'> +7.4892303e+04 </wgt>
<wgt id='1042'> +7.4634678e+04 </wgt>
<wgt id='1043'> +7.4570015e+04 </wgt>
<wgt id='1044'> +7.4587296e+04 </wgt>
<wgt id='1045'> +7.4568322e+04 </wgt>
<wgt id='1046'> +7.4353882e+04 </wgt>
<wgt id='1047'> +7.4433290e+04 </wgt>
<wgt id='1048'> +7.4644553e+04 </wgt>
<wgt id='1049'> +7.4501108e+04 </wgt>
<wgt id='1050'> +7.4687282e+04 </wgt>
<wgt id='1051'> +7.4832479e+04 </wgt>
<wgt id='1052'> +7.4626558e+04 </wgt>
<wgt id='1053'> +7.4363328e+04 </wgt>
<wgt id='1054'> +7.4502409e+04 </wgt>
<wgt id='1055'> +7.4472931e+04 </wgt>
<wgt id='1056'> +7.4610561e+04 </wgt>
<wgt id='1057'> +7.4313933e+04 </wgt>
<wgt id='1058'> +7.4399514e+04 </wgt>
<wgt id='1059'> +7.4662244e+04 </wgt>
<wgt id='1060'> +7.4396435e+04 </wgt>
<wgt id='1061'> +7.4506773e+04 </wgt>
<wgt id='1062'> +7.4704855e+04 </wgt>
<wgt id='1063'> +7.4561105e+04 </wgt>
<wgt id='1064'> +7.4614058e+04 </wgt>
<wgt id='1065'> +7.4542735e+04 </wgt>
<wgt id='1066'> +7.4626526e+04 </wgt>
<wgt id='1067'> +7.4605543e+04 </wgt>
<wgt id='1068'> +7.4592172e+04 </wgt>
<wgt id='1069'> +7.4492874e+04 </wgt>
<wgt id='1070'> +7.4495473e+04 </wgt>
<wgt id='1071'> +7.4580782e+04 </wgt>
<wgt id='1072'> +7.4504947e+04 </wgt>
<wgt id='1073'> +7.4471586e+04 </wgt>
<wgt id='1074'> +7.4458630e+04 </wgt>
<wgt id='1075'> +7.4576285e+04 </wgt>
<wgt id='1076'> +7.4608066e+04 </wgt>
<wgt id='1077'> +7.4519164e+04 </wgt>
<wgt id='1078'> +7.4505314e+04 </wgt>
<wgt id='1079'> +7.4605103e+04 </wgt>
<wgt id='1080'> +7.4492481e+04 </wgt>
<wgt id='1081'> +7.4445244e+04 </wgt>
<wgt id='1082'> +7.4572249e+04 </wgt>
<wgt id='1083'> +7.4390233e+04 </wgt>
<wgt id='1084'> +7.4519069e+04 </wgt>
<wgt id='1085'> +7.4422214e+04 </wgt>
<wgt id='1086'> +7.4492704e+04 </wgt>
<wgt id='1087'> +7.4553685e+04 </wgt>
<wgt id='1088'> +7.4568639e+04 </wgt>
<wgt id='1089'> +7.4465030e+04 </wgt>
<wgt id='1090'> +7.4580031e+04 </wgt>
<wgt id='1091'> +7.4453989e+04 </wgt>
<wgt id='1092'> +7.4471824e+04 </wgt>
<wgt id='1093'> +7.4498929e+04 </wgt>
<wgt id='1094'> +7.4598091e+04 </wgt>
<wgt id='1095'> +7.4548587e+04 </wgt>
<wgt id='1096'> +7.4541280e+04 </wgt>
<wgt id='1097'> +7.4438416e+04 </wgt>
<wgt id='1098'> +7.4569225e+04 </wgt>
<wgt id='1099'> +7.4588509e+04 </wgt>
<wgt id='1100'> +7.4452081e+04 </wgt>
<wgt id='1101'> +7.4504582e+04 </wgt>
<wgt id='1102'> +7.4556221e+04 </wgt>
<wgt id='1103'> +7.4544510e+04 </wgt>
<wgt id='1104'> +7.4542405e+04 </wgt>
<wgt id='1105'> +7.4451446e+04 </wgt>
<wgt id='1106'> +7.4494459e+04 </wgt>
<wgt id='1107'> +7.4523434e+04 </wgt>
<wgt id='1108'> +7.4511328e+04 </wgt>
<wgt id='1109'> +7.4533100e+04 </wgt>
<wgt id='1110'> +7.4519534e+04 </wgt>
<wgt id='1111'> +7.3557885e+04 </wgt>
<wgt id='1112'> +7.5406336e+04 </wgt>
<wgt id='1113'> +7.4519534e+04 </wgt>
<wgt id='1114'> +7.4550703e+04 </wgt>
<wgt id='1115'> +7.5860419e+04 </wgt>
<wgt id='1116'> +6.9737296e+04 </wgt>
<wgt id='1117'> +7.3371821e+04 </wgt>
<wgt id='1118'> +7.3865937e+04 </wgt>
<wgt id='1119'> +7.4841483e+04 </wgt>
<wgt id='1120'> +7.6553974e+04 </wgt>
<wgt id='1121'> +7.3573765e+04 </wgt>
<wgt id='1122'> +7.4705025e+04 </wgt>
<wgt id='1123'> +7.3892499e+04 </wgt>
<wgt id='1124'> +7.3393224e+04 </wgt>
<wgt id='1125'> +7.3516179e+04 </wgt>
<wgt id='1126'> +7.5304937e+04 </wgt>
<wgt id='1127'> +7.4134536e+04 </wgt>
<wgt id='1128'> +7.5348992e+04 </wgt>
<wgt id='1129'> +7.5381723e+04 </wgt>
<wgt id='1130'> +7.5857298e+04 </wgt>
<wgt id='1131'> +7.3977193e+04 </wgt>
<wgt id='1132'> +7.6315281e+04 </wgt>
<wgt id='1133'> +7.3976822e+04 </wgt>
<wgt id='1134'> +7.4560629e+04 </wgt>
<wgt id='1135'> +7.5152019e+04 </wgt>
<wgt id='1136'> +7.6233377e+04 </wgt>
<wgt id='1137'> +7.4111405e+04 </wgt>
<wgt id='1138'> +7.5090688e+04 </wgt>
<wgt id='1139'> +7.3940181e+04 </wgt>
<wgt id='1140'> +7.7278247e+04 </wgt>
<wgt id='1141'> +7.5028320e+04 </wgt>
<wgt id='1142'> +7.6514657e+04 </wgt>
<wgt id='1143'> +7.7188547e+04 </wgt>
<wgt id='1144'> +7.3311242e+04 </wgt>
<wgt id='1145'> +7.2925916e+04 </wgt>
<wgt id='1146'> +7.4968718e+04 </wgt>
<wgt id='1147'> +7.4013389e+04 </wgt>
<wgt id='1148'> +7.2670253e+04 </wgt>
<wgt id='1149'> +7.3434094e+04 </wgt>
<wgt id='1150'> +7.3410109e+04 </wgt>
<wgt id='1151'> +7.4132890e+04 </wgt>
<wgt id='1152'> +7.5230616e+04 </wgt>
<wgt id='1153'> +7.3861159e+04 </wgt>
<wgt id='1154'> +7.4849589e+04 </wgt>
<wgt id='1155'> +7.5503753e+04 </wgt>
<wgt id='1156'> +7.4908848e+04 </wgt>
<wgt id='1157'> +7.5790315e+04 </wgt>
<wgt id='1158'> +7.2946729e+04 </wgt>
<wgt id='1159'> +7.4810929e+04 </wgt>
<wgt id='1160'> +7.5720769e+04 </wgt>
<wgt id='1161'> +7.3807609e+04 </wgt>
<wgt id='1162'> +7.7503214e+04 </wgt>
<wgt id='1163'> +7.5547721e+04 </wgt>
<wgt id='1164'> +7.2550686e+04 </wgt>
<wgt id='1165'> +7.4532966e+04 </wgt>
<wgt id='1166'> +7.5778039e+04 </wgt>
<wgt id='1167'> +7.5410393e+04 </wgt>
<wgt id='1168'> +7.3190917e+04 </wgt>
<wgt id='1169'> +7.4824407e+04 </wgt>
<wgt id='1170'> +7.6328321e+04 </wgt>
<wgt id='1171'> +7.5095105e+04 </wgt>
<wgt id='1172'> +7.5901873e+04 </wgt>
<wgt id='1173'> +7.3788209e+04 </wgt>
<wgt id='1174'> +7.4983810e+04 </wgt>
<wgt id='1175'> +7.4384728e+04 </wgt>
<wgt id='1176'> +7.4700709e+04 </wgt>
<wgt id='1177'> +7.1585820e+04 </wgt>
<wgt id='1178'> +7.5139321e+04 </wgt>
<wgt id='1179'> +7.4773315e+04 </wgt>
<wgt id='1180'> +7.3457174e+04 </wgt>
<wgt id='1181'> +7.5996355e+04 </wgt>
<wgt id='1182'> +7.6530853e+04 </wgt>
<wgt id='1183'> +7.5306604e+04 </wgt>
<wgt id='1184'> +7.4176791e+04 </wgt>
<wgt id='1185'> +7.7412216e+04 </wgt>
<wgt id='1186'> +7.1881645e+04 </wgt>
<wgt id='1187'> +7.3624437e+04 </wgt>
<wgt id='1188'> +7.3644167e+04 </wgt>
<wgt id='1189'> +7.5072087e+04 </wgt>
<wgt id='1190'> +7.4329583e+04 </wgt>
<wgt id='1191'> +7.5422447e+04 </wgt>
<wgt id='1192'> +7.4263127e+04 </wgt>
<wgt id='1193'> +7.3879810e+04 </wgt>
<wgt id='1194'> +7.4317974e+04 </wgt>
<wgt id='1195'> +7.5381723e+04 </wgt>
<wgt id='1196'> +7.1910513e+04 </wgt>
<wgt id='1197'> +7.3752250e+04 </wgt>
<wgt id='1198'> +7.4000077e+04 </wgt>
<wgt id='1199'> +7.6474991e+04 </wgt>
<wgt id='1200'> +7.3388407e+04 </wgt>
<wgt id='1201'> +7.4247521e+04 </wgt>
<wgt id='1202'> +7.0612044e+04 </wgt>
<wgt id='1203'> +7.4174889e+04 </wgt>
<wgt id='1204'> +7.4962003e+04 </wgt>
<wgt id='1205'> +7.4379837e+04 </wgt>
<wgt id='1206'> +7.3975531e+04 </wgt>
<wgt id='1207'> +7.6049680e+04 </wgt>
<wgt id='1208'> +7.3683039e+04 </wgt>
<wgt id='1209'> +7.5688665e+04 </wgt>
<wgt id='1210'> +7.2002483e+04 </wgt>
<wgt id='1211'> +7.4511258e+04 </wgt>
<wgt id='1212'> +7.3030586e+04 </wgt>
<wgt id='1213'> +7.4714473e+04 </wgt>
<wgt id='1214'> +7.4482534e+04 </wgt>
<wgt id='1215'> +7.0534144e+04 </wgt>
<wgt id='1216'> +7.1179651e+04 </wgt>
<wgt id='1217'> +7.1862410e+04 </wgt>
<wgt id='1218'> +7.2770214e+04 </wgt>
<wgt id='1219'> +7.4458712e+04 </wgt>
<wgt id='1220'> +7.4962846e+04 </wgt>
<wgt id='1221'> +7.6503427e+04 </wgt>
<wgt id='1222'> +7.7048813e+04 </wgt>
<wgt id='1223'> +7.3173373e+04 </wgt>
<wgt id='1224'> +7.3124413e+04 </wgt>
<wgt id='1225'> +7.3453909e+04 </wgt>
<wgt id='1226'> +7.2959711e+04 </wgt>
<wgt id='1227'> +7.3487937e+04 </wgt>
<wgt id='1228'> +7.3138691e+04 </wgt>
<wgt id='1229'> +7.2811365e+04 </wgt>
<wgt id='1230'> +7.3313881e+04 </wgt>
<wgt id='1231'> +7.3532731e+04 </wgt>
<wgt id='1232'> +7.3369318e+04 </wgt>
<wgt id='1233'> +7.2947655e+04 </wgt>
<wgt id='1234'> +7.3042960e+04 </wgt>
<wgt id='1235'> +7.3274003e+04 </wgt>
<wgt id='1236'> +7.3476922e+04 </wgt>
<wgt id='1237'> +7.3082658e+04 </wgt>
<wgt id='1238'> +7.3167607e+04 </wgt>
<wgt id='1239'> +7.3519820e+04 </wgt>
<wgt id='1240'> +7.3118835e+04 </wgt>
<wgt id='1241'> +7.3329979e+04 </wgt>
<wgt id='1242'> +7.3267976e+04 </wgt>
<wgt id='1243'> +7.3150043e+04 </wgt>
<wgt id='1244'> +7.3348618e+04 </wgt>
<wgt id='1245'> +7.3114051e+04 </wgt>
<wgt id='1246'> +7.3024688e+04 </wgt>
<wgt id='1247'> +7.3560298e+04 </wgt>
<wgt id='1248'> +7.3015272e+04 </wgt>
<wgt id='1249'> +7.3184581e+04 </wgt>
<wgt id='1250'> +7.3114991e+04 </wgt>
<wgt id='1251'> +7.3213168e+04 </wgt>
<wgt id='1252'> +7.3626711e+04 </wgt>
<wgt id='1253'> +7.2921163e+04 </wgt>
<wgt id='1254'> +7.2847091e+04 </wgt>
<wgt id='1255'> +7.3306943e+04 </wgt>
<wgt id='1256'> +7.3166860e+04 </wgt>
<wgt id='1257'> +7.3134354e+04 </wgt>
<wgt id='1258'> +7.3269635e+04 </wgt>
<wgt id='1259'> +7.3279011e+04 </wgt>
<wgt id='1260'> +7.3062193e+04 </wgt>
<wgt id='1261'> +7.3202903e+04 </wgt>
<wgt id='1262'> +7.3184857e+04 </wgt>
<wgt id='1263'> +7.3137016e+04 </wgt>
<wgt id='1264'> +7.3220760e+04 </wgt>
<wgt id='1265'> +7.3242433e+04 </wgt>
<wgt id='1266'> +7.3133955e+04 </wgt>
<wgt id='1267'> +7.3213359e+04 </wgt>
<wgt id='1268'> +7.3211979e+04 </wgt>
<wgt id='1269'> +7.3163648e+04 </wgt>
<wgt id='1270'> +7.3150567e+04 </wgt>
<wgt id='1271'> +7.3293698e+04 </wgt>
<wgt id='1272'> +7.3296814e+04 </wgt>
<wgt id='1273'> +7.3085045e+04 </wgt>
<wgt id='1274'> +7.3110966e+04 </wgt>
<wgt id='1275'> +7.3176563e+04 </wgt>
<wgt id='1276'> +7.3005084e+04 </wgt>
<wgt id='1277'> +7.3133493e+04 </wgt>
<wgt id='1278'> +7.3238484e+04 </wgt>
<wgt id='1279'> +7.3046181e+04 </wgt>
<wgt id='1280'> +7.3179095e+04 </wgt>
<wgt id='1281'> +7.2961113e+04 </wgt>
<wgt id='1282'> +7.3218319e+04 </wgt>
<wgt id='1283'> +7.3211965e+04 </wgt>
<wgt id='1284'> +7.3214433e+04 </wgt>
<wgt id='1285'> +7.3084349e+04 </wgt>
<wgt id='1286'> +7.3226226e+04 </wgt>
<wgt id='1287'> +7.3111467e+04 </wgt>
<wgt id='1288'> +7.3307224e+04 </wgt>
<wgt id='1289'> +7.3182968e+04 </wgt>
<wgt id='1290'> +7.3077778e+04 </wgt>
<wgt id='1291'> +7.3266134e+04 </wgt>
<wgt id='1292'> +7.3107475e+04 </wgt>
<wgt id='1293'> +7.3248031e+04 </wgt>
<wgt id='1294'> +7.3164048e+04 </wgt>
<wgt id='1295'> +7.3296462e+04 </wgt>
<wgt id='1296'> +7.3209705e+04 </wgt>
<wgt id='1297'> +7.3174833e+04 </wgt>
<wgt id='1298'> +7.3091042e+04 </wgt>
<wgt id='1299'> +7.3177231e+04 </wgt>
<wgt id='1300'> +7.3254713e+04 </wgt>
<wgt id='1301'> +7.3153629e+04 </wgt>
<wgt id='1302'> +7.3121949e+04 </wgt>
<wgt id='1303'> +7.3170464e+04 </wgt>
<wgt id='1304'> +7.3179512e+04 </wgt>
<wgt id='1305'> +7.3098762e+04 </wgt>
<wgt id='1306'> +7.3169285e+04 </wgt>
<wgt id='1307'> +7.3115016e+04 </wgt>
<wgt id='1308'> +7.3121766e+04 </wgt>
<wgt id='1309'> +7.3181675e+04 </wgt>
<wgt id='1310'> +7.3217160e+04 </wgt>
<wgt id='1311'> +7.3083379e+04 </wgt>
<wgt id='1312'> +7.3068070e+04 </wgt>
<wgt id='1313'> +7.3075537e+04 </wgt>
<wgt id='1314'> +7.3209851e+04 </wgt>
<wgt id='1315'> +7.3126690e+04 </wgt>
<wgt id='1316'> +7.3165025e+04 </wgt>
<wgt id='1317'> +7.3264783e+04 </wgt>
<wgt id='1318'> +7.3191198e+04 </wgt>
<wgt id='1319'> +7.3138488e+04 </wgt>
<wgt id='1320'> +7.3216695e+04 </wgt>
<wgt id='1321'> +7.3186620e+04 </wgt>
<wgt id='1322'> +7.3131731e+04 </wgt>
<wgt id='1323'> +7.3100799e+04 </wgt>
<wgt id='1324'> +7.2289989e+04 </wgt>
<wgt id='1325'> +7.4120715e+04 </wgt>
<wgt id='1326'> +7.2171590e+04 </wgt>
<wgt id='1327'> +6.9337346e+04 </wgt>
<wgt id='1328'> +7.4403327e+04 </wgt>
<wgt id='1329'> +7.3695145e+04 </wgt>
<wgt id='1330'> +7.4581945e+04 </wgt>
<wgt id='1331'> +7.4904620e+04 </wgt>
<wgt id='1332'> +7.4393583e+04 </wgt>
<wgt id='1333'> +7.4710157e+04 </wgt>
<wgt id='1334'> +7.2585041e+04 </wgt>
<wgt id='1335'> +7.3635764e+04 </wgt>
<wgt id='1336'> +7.4375690e+04 </wgt>
<wgt id='1337'> +7.4189029e+04 </wgt>
<wgt id='1338'> +7.5419493e+04 </wgt>
<wgt id='1339'> +7.4600357e+04 </wgt>
<wgt id='1340'> +7.3154545e+04 </wgt>
<wgt id='1341'> +7.3404920e+04 </wgt>
<wgt id='1342'> +7.5060955e+04 </wgt>
<wgt id='1343'> +7.5174107e+04 </wgt>
<wgt id='1344'> +7.3946267e+04 </wgt>
<wgt id='1345'> +7.5504663e+04 </wgt>
<wgt id='1346'> +7.4615286e+04 </wgt>
<wgt id='1347'> +7.5054754e+04 </wgt>
<wgt id='1348'> +7.2568179e+04 </wgt>
<wgt id='1349'> +7.4783502e+04 </wgt>
<wgt id='1350'> +7.4035175e+04 </wgt>
<wgt id='1351'> +7.3984343e+04 </wgt>
<wgt id='1352'> +7.5410983e+04 </wgt>
<wgt id='1353'> +7.4997635e+04 </wgt>
<wgt id='1354'> +7.4679881e+04 </wgt>
<wgt id='1355'> +7.5040953e+04 </wgt>
<wgt id='1356'> +7.3858004e+04 </wgt>
<wgt id='1357'> +7.4079139e+04 </wgt>
<wgt id='1358'> +7.4112415e+04 </wgt>
<wgt id='1359'> +7.4993778e+04 </wgt>
<wgt id='1360'> +7.4614239e+04 </wgt>
<wgt id='1361'> +7.5854354e+04 </wgt>
<wgt id='1362'> +7.5653496e+04 </wgt>
<wgt id='1363'> +7.4606924e+04 </wgt>
<wgt id='1364'> +7.4516283e+04 </wgt>
<wgt id='1365'> +7.4170956e+04 </wgt>
<wgt id='1366'> +7.4073975e+04 </wgt>
<wgt id='1367'> +7.5184815e+04 </wgt>
<wgt id='1368'> +7.4568885e+04 </wgt>
<wgt id='1369'> +7.2693767e+04 </wgt>
<wgt id='1370'> +7.4520457e+04 </wgt>
<wgt id='1371'> +7.4112896e+04 </wgt>
<wgt id='1372'> +7.5312225e+04 </wgt>
<wgt id='1373'> +7.4375674e+04 </wgt>
<wgt id='1374'> +7.4922052e+04 </wgt>
<wgt id='1375'> +7.4632554e+04 </wgt>
<wgt id='1376'> +7.4393732e+04 </wgt>
<wgt id='1377'> +7.4557872e+04 </wgt>
<wgt id='1378'> +7.3384077e+04 </wgt>
<wgt id='1379'> +7.5423521e+04 </wgt>
<wgt id='1380'> +7.3828687e+04 </wgt>
<wgt id='1381'> +7.3985122e+04 </wgt>
<wgt id='1382'> +7.3974719e+04 </wgt>
<wgt id='1383'> +7.4916150e+04 </wgt>
<wgt id='1384'> +7.4794644e+04 </wgt>
<wgt id='1385'> +7.3652920e+04 </wgt>
<wgt id='1386'> +7.4867649e+04 </wgt>
<wgt id='1387'> +7.3061742e+04 </wgt>
<wgt id='1388'> +7.4720120e+04 </wgt>
<wgt id='1389'> +7.4300317e+04 </wgt>
<wgt id='1390'> +7.3146367e+04 </wgt>
<wgt id='1391'> +7.4372504e+04 </wgt>
<wgt id='1392'> +7.4147967e+04 </wgt>
<wgt id='1393'> +7.3540156e+04 </wgt>
<wgt id='1394'> +7.4170956e+04 </wgt>
<wgt id='1395'> +7.4916487e+04 </wgt>
<wgt id='1396'> +7.2778222e+04 </wgt>
<wgt id='1397'> +7.4544091e+04 </wgt>
<wgt id='1398'> +7.4922577e+04 </wgt>
<wgt id='1399'> +7.4829676e+04 </wgt>
<wgt id='1400'> +7.5440088e+04 </wgt>
<wgt id='1401'> +7.4824144e+04 </wgt>
<wgt id='1402'> +7.4866119e+04 </wgt>
<wgt id='1403'> +7.4445559e+04 </wgt>
<wgt id='1404'> +7.5317114e+04 </wgt>
<wgt id='1405'> +7.2777127e+04 </wgt>
<wgt id='1406'> +7.3571060e+04 </wgt>
<wgt id='1407'> +7.4930491e+04 </wgt>
<wgt id='1408'> +7.4859653e+04 </wgt>
<wgt id='1409'> +7.3148730e+04 </wgt>
<wgt id='1410'> +7.4963767e+04 </wgt>
<wgt id='1411'> +7.5272772e+04 </wgt>
<wgt id='1412'> +7.5500881e+04 </wgt>
<wgt id='1413'> +7.5359513e+04 </wgt>
<wgt id='1414'> +7.4134895e+04 </wgt>
<wgt id='1415'> +7.2578343e+04 </wgt>
<wgt id='1416'> +7.4416641e+04 </wgt>
<wgt id='1417'> +7.3754158e+04 </wgt>
<wgt id='1418'> +7.5456597e+04 </wgt>
<wgt id='1419'> +7.4308095e+04 </wgt>
<wgt id='1420'> +7.3648318e+04 </wgt>
<wgt id='1421'> +7.3719047e+04 </wgt>
<wgt id='1422'> +7.4312255e+04 </wgt>
<wgt id='1423'> +7.5652849e+04 </wgt>
<wgt id='1424'> +7.3326555e+04 </wgt>
<wgt id='1425'> +7.3280885e+04 </wgt>
<wgt id='1426'> +7.4960712e+04 </wgt>
<wgt id='1427'> +7.5630367e+04 </wgt>
<wgt id='1428'> +7.5220124e+04 </wgt>
<wgt id='1429'> +7.4111458e+04 </wgt>
<wgt id='1430'> +7.4716729e+04 </wgt>
<wgt id='1431'> +7.4409140e+04 </wgt>
<wgt id='1432'> +7.4773990e+04 </wgt>
<wgt id='1433'> +7.4436812e+04 </wgt>
<wgt id='1434'> +7.4317634e+04 </wgt>
<wgt id='1435'> +7.4245618e+04 </wgt>
<wgt id='1436'> +7.4271266e+04 </wgt>
<wgt id='1437'> +7.4674218e+04 </wgt>
<wgt id='1438'> +7.4554977e+04 </wgt>
<wgt id='1439'> +7.4203773e+04 </wgt>
<wgt id='1440'> +7.4378765e+04 </wgt>
<wgt id='1441'> +7.4312018e+04 </wgt>
<wgt id='1442'> +7.4565416e+04 </wgt>
<wgt id='1443'> +7.4382775e+04 </wgt>
<wgt id='1444'> +7.4201199e+04 </wgt>
<wgt id='1445'> +7.4470784e+04 </wgt>
<wgt id='1446'> +7.4341352e+04 </wgt>
<wgt id='1447'> +7.4188930e+04 </wgt>
<wgt id='1448'> +7.4530390e+04 </wgt>
<wgt id='1449'> +7.4382119e+04 </wgt>
<wgt id='1450'> +7.4204613e+04 </wgt>
<wgt id='1451'> +7.4329187e+04 </wgt>
<wgt id='1452'> +7.4292384e+04 </wgt>
<wgt id='1453'> +7.4449778e+04 </wgt>
<wgt id='1454'> +7.4370617e+04 </wgt>
<wgt id='1455'> +7.4448193e+04 </wgt>
<wgt id='1456'> +7.4483582e+04 </wgt>
<wgt id='1457'> +7.4478581e+04 </wgt>
<wgt id='1458'> +7.4361504e+04 </wgt>
<wgt id='1459'> +7.4298764e+04 </wgt>
<wgt id='1460'> +7.4314183e+04 </wgt>
<wgt id='1461'> +7.4321794e+04 </wgt>
<wgt id='1462'> +7.4354643e+04 </wgt>
<wgt id='1463'> +7.4404994e+04 </wgt>
<wgt id='1464'> +7.4339330e+04 </wgt>
<wgt id='1465'> +7.4398954e+04 </wgt>
<wgt id='1466'> +7.4443333e+04 </wgt>
<wgt id='1467'> +7.4481120e+04 </wgt>
<wgt id='1468'> +7.4481111e+04 </wgt>
<wgt id='1469'> +7.4385805e+04 </wgt>
<wgt id='1470'> +7.4462282e+04 </wgt>
<wgt id='1471'> +7.4468670e+04 </wgt>
<wgt id='1472'> +7.4403837e+04 </wgt>
<wgt id='1473'> +7.4387615e+04 </wgt>
<wgt id='1474'> +7.4468593e+04 </wgt>
<wgt id='1475'> +7.4370694e+04 </wgt>
<wgt id='1476'> +7.4414651e+04 </wgt>
<wgt id='1477'> +7.4448496e+04 </wgt>
<wgt id='1478'> +7.4413010e+04 </wgt>
<wgt id='1479'> +7.4403360e+04 </wgt>
<wgt id='1480'> +7.4422089e+04 </wgt>
<wgt id='1481'> +7.4404147e+04 </wgt>
<wgt id='1482'> +7.4111458e+04 </wgt>
<wgt id='1483'> +7.4716729e+04 </wgt>
<wgt id='1484'> +7.5915684e+04 </wgt>
<wgt id='1485'> +7.6263212e+04 </wgt>
<wgt id='1486'> +7.5586490e+04 </wgt>
<wgt id='1487'> +7.4731894e+04 </wgt>
<wgt id='1488'> +7.5893029e+04 </wgt>
<wgt id='1489'> +7.6274088e+04 </wgt>
<wgt id='1490'> +7.4676630e+04 </wgt>
<wgt id='1491'> +7.5632820e+04 </wgt>
<wgt id='1492'> +7.4626074e+04 </wgt>
<wgt id='1493'> +7.5728300e+04 </wgt>
<wgt id='1494'> +7.5079585e+04 </wgt>
<wgt id='1495'> +7.4867790e+04 </wgt>
<wgt id='1496'> +7.5653373e+04 </wgt>
<wgt id='1497'> +7.5055401e+04 </wgt>
<wgt id='1498'> +7.7016246e+04 </wgt>
<wgt id='1499'> +7.5935910e+04 </wgt>
<wgt id='1500'> +7.4307211e+04 </wgt>
<wgt id='1501'> +7.5383779e+04 </wgt>
<wgt id='1502'> +7.7066120e+04 </wgt>
<wgt id='1503'> +7.5268924e+04 </wgt>
<wgt id='1504'> +7.6093871e+04 </wgt>
<wgt id='1505'> +7.5651306e+04 </wgt>
<wgt id='1506'> +7.5493647e+04 </wgt>
<wgt id='1507'> +7.5268268e+04 </wgt>
<wgt id='1508'> +7.4854799e+04 </wgt>
<wgt id='1509'> +7.5897376e+04 </wgt>
<wgt id='1510'> +7.5985647e+04 </wgt>
<wgt id='1511'> +7.5260735e+04 </wgt>
<wgt id='1512'> +7.5552043e+04 </wgt>
<wgt id='1513'> +7.5727527e+04 </wgt>
<wgt id='1514'> +7.6271861e+04 </wgt>
<wgt id='1515'> +7.5408770e+04 </wgt>
<wgt id='1516'> +7.4034605e+04 </wgt>
<wgt id='1517'> +7.6305034e+04 </wgt>
<wgt id='1518'> +7.6170183e+04 </wgt>
<wgt id='1519'> +7.6045368e+04 </wgt>
<wgt id='1520'> +7.4964873e+04 </wgt>
<wgt id='1521'> +7.4433381e+04 </wgt>
<wgt id='1522'> +7.6692046e+04 </wgt>
<wgt id='1523'> +7.6434631e+04 </wgt>
<wgt id='1524'> +7.6095415e+04 </wgt>
<wgt id='1525'> +7.6272799e+04 </wgt>
<wgt id='1526'> +7.5938204e+04 </wgt>
<wgt id='1527'> +7.6293764e+04 </wgt>
<wgt id='1528'> +7.6330907e+04 </wgt>
<wgt id='1529'> +7.6483391e+04 </wgt>
<wgt id='1530'> +7.5940925e+04 </wgt>
<wgt id='1531'> +7.5405240e+04 </wgt>
<wgt id='1532'> +7.5015158e+04 </wgt>
<wgt id='1533'> +7.6341337e+04 </wgt>
<wgt id='1534'> +7.6289378e+04 </wgt>
<wgt id='1535'> +7.5161067e+04 </wgt>
<wgt id='1536'> +7.6273407e+04 </wgt>
<wgt id='1537'> +7.5909635e+04 </wgt>
<wgt id='1538'> +7.8193367e+04 </wgt>
<wgt id='1539'> +7.6270162e+04 </wgt>
<wgt id='1540'> +7.6086802e+04 </wgt>
<wgt id='1541'> +7.6345981e+04 </wgt>
<wgt id='1542'> +7.6969833e+04 </wgt>
<wgt id='1543'> +7.6368995e+04 </wgt>
<wgt id='1544'> +7.6974983e+04 </wgt>
<wgt id='1545'> +7.5838254e+04 </wgt>
<wgt id='1546'> +7.5964929e+04 </wgt>
<wgt id='1547'> +7.6638997e+04 </wgt>
<wgt id='1548'> +7.5334217e+04 </wgt>
<wgt id='1549'> +7.6595377e+04 </wgt>
<wgt id='1550'> +7.6140495e+04 </wgt>
<wgt id='1551'> +7.7405544e+04 </wgt>
<wgt id='1552'> +7.5530435e+04 </wgt>
<wgt id='1553'> +7.7194681e+04 </wgt>
<wgt id='1554'> +7.4018105e+04 </wgt>
<wgt id='1555'> +7.6379902e+04 </wgt>
<wgt id='1556'> +7.6246821e+04 </wgt>
<wgt id='1557'> +7.5783700e+04 </wgt>
<wgt id='1558'> +7.6816201e+04 </wgt>
<wgt id='1559'> +7.6794577e+04 </wgt>
<wgt id='1560'> +7.5898709e+04 </wgt>
<wgt id='1561'> +7.6561781e+04 </wgt>
<wgt id='1562'> +7.6237956e+04 </wgt>
<wgt id='1563'> +7.6696864e+04 </wgt>
<wgt id='1564'> +7.4931419e+04 </wgt>
<wgt id='1565'> +7.4617525e+04 </wgt>
<wgt id='1566'> +7.6164267e+04 </wgt>
<wgt id='1567'> +7.7063238e+04 </wgt>
<wgt id='1568'> +7.5787717e+04 </wgt>
<wgt id='1569'> +7.6866796e+04 </wgt>
<wgt id='1570'> +7.6382871e+04 </wgt>
<wgt id='1571'> +7.7281757e+04 </wgt>
<wgt id='1572'> +7.5272917e+04 </wgt>
<wgt id='1573'> +7.6523590e+04 </wgt>
<wgt id='1574'> +7.5131257e+04 </wgt>
<wgt id='1575'> +7.5438495e+04 </wgt>
<wgt id='1576'> +7.6701121e+04 </wgt>
<wgt id='1577'> +7.4961234e+04 </wgt>
<wgt id='1578'> +7.6019263e+04 </wgt>
<wgt id='1579'> +7.6372423e+04 </wgt>
<wgt id='1580'> +7.7027144e+04 </wgt>
<wgt id='1581'> +7.6944198e+04 </wgt>
<wgt id='1582'> +7.6302511e+04 </wgt>
<wgt id='1583'> +7.4533523e+04 </wgt>
<wgt id='1584'> +7.4585556e+04 </wgt>
<wgt id='1585'> +7.3404416e+04 </wgt>
<wgt id='1586'> +6.5460851e+04 </wgt>
<wgt id='1587'> +7.3665408e+04 </wgt>
<wgt id='1588'> +7.4111458e+04 </wgt>
<wgt id='1589'> +7.4196375e+04 </wgt>
<wgt id='1590'> +7.4404991e+04 </wgt>
<wgt id='1591'> +7.4716729e+04 </wgt>
<wgt id='1592'> +7.4837463e+04 </wgt>
<wgt id='1593'> +7.4313232e+04 </wgt>
<wgt id='1594'> +7.5034057e+04 </wgt>
<wgt id='1595'> +7.4411228e+04 </wgt>
<wgt id='1596'> +7.3862441e+04 </wgt>
<wgt id='1597'> +7.4994471e+04 </wgt>
<wgt id='1598'> +7.4173145e+04 </wgt>
<wgt id='1599'> +7.4544232e+04 </wgt>
<wgt id='1600'> +7.2987662e+04 </wgt>
<wgt id='1601'> +7.5517723e+04 </wgt>
<wgt id='1602'> +7.3749343e+04 </wgt>
<wgt id='1603'> +7.4954209e+04 </wgt>
<wgt id='1604'> +7.4706830e+04 </wgt>
<wgt id='1605'> +7.4297588e+04 </wgt>
<wgt id='1606'> +7.3561804e+04 </wgt>
<wgt id='1607'> +7.4585226e+04 </wgt>
<wgt id='1608'> +7.3003268e+04 </wgt>
<wgt id='1609'> +7.4982579e+04 </wgt>
<wgt id='1610'> +7.4348760e+04 </wgt>
<wgt id='1611'> +7.3985146e+04 </wgt>
<wgt id='1612'> +7.5000808e+04 </wgt>
<wgt id='1613'> +7.2629793e+04 </wgt>
<wgt id='1614'> +7.3907322e+04 </wgt>
<wgt id='1615'> +7.4989987e+04 </wgt>
<wgt id='1616'> +7.3339459e+04 </wgt>
<wgt id='1617'> +7.4990418e+04 </wgt>
<wgt id='1618'> +7.4569271e+04 </wgt>
<wgt id='1619'> +7.3741362e+04 </wgt>
<wgt id='1620'> +7.4460210e+04 </wgt>
<wgt id='1621'> +7.4154444e+04 </wgt>
<wgt id='1622'> +7.4369978e+04 </wgt>
<wgt id='1623'> +7.3834961e+04 </wgt>
<wgt id='1624'> +7.4610086e+04 </wgt>
<wgt id='1625'> +7.2955034e+04 </wgt>
<wgt id='1626'> +7.3429237e+04 </wgt>
<wgt id='1627'> +7.4922248e+04 </wgt>
<wgt id='1628'> +7.5004589e+04 </wgt>
<wgt id='1629'> +7.4050702e+04 </wgt>
<wgt id='1630'> +7.4395418e+04 </wgt>
<wgt id='1631'> +7.3742785e+04 </wgt>
<wgt id='1632'> +7.3674728e+04 </wgt>
<wgt id='1633'> +7.4693554e+04 </wgt>
<wgt id='1634'> +7.5310539e+04 </wgt>
<wgt id='1635'> +7.3350842e+04 </wgt>
<wgt id='1636'> +7.3689142e+04 </wgt>
<wgt id='1637'> +7.5204156e+04 </wgt>
<wgt id='1638'> +7.3898430e+04 </wgt>
<wgt id='1639'> +7.4395480e+04 </wgt>
<wgt id='1640'> +7.6143861e+04 </wgt>
<wgt id='1641'> +7.2934813e+04 </wgt>
<wgt id='1642'> +7.3684223e+04 </wgt>
<wgt id='1643'> +7.4760079e+04 </wgt>
<wgt id='1644'> +7.5078998e+04 </wgt>
<wgt id='1645'> +7.2968131e+04 </wgt>
<wgt id='1646'> +7.4141945e+04 </wgt>
<wgt id='1647'> +7.4876109e+04 </wgt>
<wgt id='1648'> +7.4751752e+04 </wgt>
<wgt id='1649'> +7.4453516e+04 </wgt>
<wgt id='1650'> +7.5142124e+04 </wgt>
<wgt id='1651'> +7.3213421e+04 </wgt>
<wgt id='1652'> +7.3627219e+04 </wgt>
<wgt id='1653'> +7.3965917e+04 </wgt>
<wgt id='1654'> +7.4675766e+04 </wgt>
<wgt id='1655'> +7.5054856e+04 </wgt>
<wgt id='1656'> +7.5525059e+04 </wgt>
<wgt id='1657'> +7.5827891e+04 </wgt>
<wgt id='1658'> +7.5861718e+04 </wgt>
<wgt id='1659'> +7.5743868e+04 </wgt>
<wgt id='1660'> +7.5640673e+04 </wgt>
<wgt id='1661'> +7.6310099e+04 </wgt>
<wgt id='1662'> +7.4447803e+04 </wgt>
<wgt id='1663'> +7.5018187e+04 </wgt>
<wgt id='1664'> +7.5217549e+04 </wgt>
<wgt id='1665'> +7.5013137e+04 </wgt>
<wgt id='1666'> +7.5466581e+04 </wgt>
<wgt id='1667'> +7.4682445e+04 </wgt>
<wgt id='1668'> +7.6195045e+04 </wgt>
<wgt id='1669'> +7.5988081e+04 </wgt>
<wgt id='1670'> +7.4675382e+04 </wgt>
<wgt id='1671'> +7.5524578e+04 </wgt>
<wgt id='1672'> +7.5858316e+04 </wgt>
<wgt id='1673'> +7.6449150e+04 </wgt>
<wgt id='1674'> +7.4936443e+04 </wgt>
<wgt id='1675'> +7.6237110e+04 </wgt>
<wgt id='1676'> +7.4823084e+04 </wgt>
<wgt id='1677'> +7.4477237e+04 </wgt>
<wgt id='1678'> +7.6623344e+04 </wgt>
<wgt id='1679'> +7.5648723e+04 </wgt>
<wgt id='1680'> +7.6088981e+04 </wgt>
<wgt id='1681'> +7.5640825e+04 </wgt>
<wgt id='1682'> +7.4947659e+04 </wgt>
<wgt id='1683'> +7.5537193e+04 </wgt>
<wgt id='1684'> +7.5488610e+04 </wgt>
<wgt id='1685'> +7.6423374e+04 </wgt>
<wgt id='1686'> +7.4497779e+04 </wgt>
<wgt id='1687'> +7.6265099e+04 </wgt>
<wgt id='1688'> +7.4414382e+04 </wgt>
<wgt id='1689'> +7.4912713e+04 </wgt>
<wgt id='1690'> +7.6503487e+04 </wgt>
<wgt id='1691'> +7.5678891e+04 </wgt>
<wgt id='1692'> +7.5329838e+04 </wgt>
<wgt id='1693'> +7.6341914e+04 </wgt>
<wgt id='1694'> +7.5155471e+04 </wgt>
<wgt id='1695'> +7.5560094e+04 </wgt>
<wgt id='1696'> +7.5352366e+04 </wgt>
<wgt id='1697'> +7.5717991e+04 </wgt>
<wgt id='1698'> +7.5607885e+04 </wgt>
<wgt id='1699'> +7.4616115e+04 </wgt>
<wgt id='1700'> +7.6604447e+04 </wgt>
<wgt id='1701'> +7.5245767e+04 </wgt>
<wgt id='1702'> +7.5989758e+04 </wgt>
<wgt id='1703'> +7.5594850e+04 </wgt>
<wgt id='1704'> +7.5901761e+04 </wgt>
<wgt id='1705'> +7.5359785e+04 </wgt>
<wgt id='1706'> +7.5605780e+04 </wgt>
<wgt id='1707'> +7.4396937e+04 </wgt>
<wgt id='1708'> +7.6357291e+04 </wgt>
<wgt id='1709'> +7.5027698e+04 </wgt>
<wgt id='1710'> +7.6194653e+04 </wgt>
<wgt id='1711'> +7.4989243e+04 </wgt>
<wgt id='1712'> +7.5879262e+04 </wgt>
<wgt id='1713'> +7.5954916e+04 </wgt>
<wgt id='1714'> +7.4863302e+04 </wgt>
<wgt id='1715'> +7.3537480e+04 </wgt>
<wgt id='1716'> +7.5250794e+04 </wgt>
<wgt id='1717'> +7.2523257e+04 </wgt>
<wgt id='1718'> +7.2626931e+04 </wgt>
<wgt id='1719'> +7.2389662e+04 </wgt>
<wgt id='1720'> +7.2514524e+04 </wgt>
<wgt id='1721'> +7.2531228e+04 </wgt>
<wgt id='1722'> +7.2506232e+04 </wgt>
<wgt id='1723'> +7.2550987e+04 </wgt>
<wgt id='1724'> +7.2678670e+04 </wgt>
<wgt id='1725'> +7.2396888e+04 </wgt>
<wgt id='1726'> +7.2386891e+04 </wgt>
<wgt id='1727'> +7.2663798e+04 </wgt>
<wgt id='1728'> +7.1888429e+04 </wgt>
<wgt id='1729'> +7.3140229e+04 </wgt>
<wgt id='1730'> +7.2597851e+04 </wgt>
<wgt id='1731'> +7.2469841e+04 </wgt>
<wgt id='1732'> +7.2922590e+04 </wgt>
<wgt id='1733'> +7.2922590e+04 </wgt>
<wgt id='1734'> +7.2398982e+04 </wgt>
<wgt id='1735'> +7.2603495e+04 </wgt>
<wgt id='1736'> +7.2554612e+04 </wgt>
<wgt id='1737'> +7.2480470e+04 </wgt>
<wgt id='1738'> +7.2801508e+04 </wgt>
<wgt id='1739'> +7.2016755e+04 </wgt>
<wgt id='1740'> +7.2412003e+04 </wgt>
<wgt id='1741'> +7.2788210e+04 </wgt>
<wgt id='1742'> +7.2770661e+04 </wgt>
<wgt id='1743'> +7.2234669e+04 </wgt>
<wgt id='1744'> +7.2404039e+04 </wgt>
<wgt id='1745'> +7.2846806e+04 </wgt>
<wgt id='1746'> +7.1946569e+04 </wgt>
<wgt id='1747'> +7.2826337e+04 </wgt>
<wgt id='1748'> +7.2641625e+04 </wgt>
<wgt id='1749'> +7.2069710e+04 </wgt>
<wgt id='1750'> +7.2467385e+04 </wgt>
<wgt id='1751'> +7.2582671e+04 </wgt>
<wgt id='1752'> +7.2533218e+04 </wgt>
<wgt id='1753'> +7.2500059e+04 </wgt>
<wgt id='1754'> +7.2588813e+04 </wgt>
<wgt id='1755'> +7.2478006e+04 </wgt>
<wgt id='1756'> +7.2154108e+04 </wgt>
<wgt id='1757'> +7.3451919e+04 </wgt>
<wgt id='1758'> +7.2818726e+04 </wgt>
<wgt id='1759'> +7.2069132e+04 </wgt>
<wgt id='1760'> +7.3042395e+04 </wgt>
<wgt id='1761'> +7.2088842e+04 </wgt>
<wgt id='1762'> +7.2492087e+04 </wgt>
<wgt id='1763'> +7.2475088e+04 </wgt>
<wgt id='1764'> +7.2388659e+04 </wgt>
<wgt id='1765'> +7.3125214e+04 </wgt>
<wgt id='1766'> +7.2442753e+04 </wgt>
<wgt id='1767'> +7.2708127e+04 </wgt>
<wgt id='1768'> +7.2452564e+04 </wgt>
<wgt id='1769'> +7.2612473e+04 </wgt>
<wgt id='1770'> +7.2297154e+04 </wgt>
<wgt id='1771'> +7.2815103e+04 </wgt>
<wgt id='1772'> +7.2748738e+04 </wgt>
<wgt id='1773'> +7.2276240e+04 </wgt>
<wgt id='1774'> +7.2329332e+04 </wgt>
<wgt id='1775'> +7.2637973e+04 </wgt>
<wgt id='1776'> +7.2695341e+04 </wgt>
<wgt id='1777'> +7.2455892e+04 </wgt>
<wgt id='1778'> +7.2524362e+04 </wgt>
<wgt id='1779'> +7.2502061e+04 </wgt>
<wgt id='1780'> +7.2956265e+04 </wgt>
<wgt id='1781'> +7.2595730e+04 </wgt>
<wgt id='1782'> +7.2523257e+04 </wgt>
<wgt id='1783'> +7.2499147e+04 </wgt>
<wgt id='1784'> +7.3554321e+04 </wgt>
<wgt id='1785'> +7.3510090e+04 </wgt>
<wgt id='1786'> +7.2598168e+04 </wgt>
<wgt id='1787'> +7.3587974e+04 </wgt>
<wgt id='1788'> +7.3447536e+04 </wgt>
<wgt id='1789'> +7.3604223e+04 </wgt>
<wgt id='1790'> +7.3430770e+04 </wgt>
<wgt id='1791'> +7.3613397e+04 </wgt>
<wgt id='1792'> +7.3112255e+04 </wgt>
<wgt id='1793'> +7.3800325e+04 </wgt>
<wgt id='1794'> +7.3751831e+04 </wgt>
<wgt id='1795'> +7.2902952e+04 </wgt>
<wgt id='1796'> +7.3631626e+04 </wgt>
<wgt id='1797'> +7.3434504e+04 </wgt>
<wgt id='1798'> +7.3592145e+04 </wgt>
<wgt id='1799'> +7.4067200e+04 </wgt>
<wgt id='1800'> +7.3876882e+04 </wgt>
<wgt id='1801'> +7.4200969e+04 </wgt>
<wgt id='1802'> +7.4280842e+04 </wgt>
<wgt id='1803'> +7.3565299e+04 </wgt>
<wgt id='1804'> +7.3258267e+04 </wgt>
<wgt id='1805'> +7.3625082e+04 </wgt>
<wgt id='1806'> +7.3398047e+04 </wgt>
<wgt id='1807'> +7.3589700e+04 </wgt>
<wgt id='1808'> +7.3583430e+04 </wgt>
<wgt id='1809'> +7.3341348e+04 </wgt>
<wgt id='1810'> +7.3499774e+04 </wgt>
<wgt id='1811'> +7.3407517e+04 </wgt>
<wgt id='1812'> +7.3590475e+04 </wgt>
<wgt id='1813'> +7.3621219e+04 </wgt>
<wgt id='1814'> +7.3434384e+04 </wgt>
<wgt id='1815'> +7.3475619e+04 </wgt>
<wgt id='1816'> +7.3541187e+04 </wgt>
<wgt id='1817'> +7.3211661e+04 </wgt>
<wgt id='1818'> +7.3562853e+04 </wgt>
<wgt id='1819'> +7.3362870e+04 </wgt>
<wgt id='1820'> +7.3542380e+04 </wgt>
<wgt id='1821'> +7.3387685e+04 </wgt>
<wgt id='1822'> +7.3300721e+04 </wgt>
<wgt id='1823'> +7.3557742e+04 </wgt>
<wgt id='1824'> +7.3646581e+04 </wgt>
<wgt id='1825'> +7.3086038e+04 </wgt>
<wgt id='1826'> +7.4193507e+04 </wgt>
<wgt id='1827'> +8.3118356e+04 </wgt>
<wgt id='1828'> +8.3281075e+04 </wgt>
<wgt id='1829'> +8.2991445e+04 </wgt>
<wgt id='1830'> +8.3199297e+04 </wgt>
<wgt id='1831'> +8.3072017e+04 </wgt>
<wgt id='1832'> +8.3170993e+04 </wgt>
<wgt id='1833'> +8.3099984e+04 </wgt>
<wgt id='1834'> +8.2761929e+04 </wgt>
<wgt id='1835'> +8.3493518e+04 </wgt>
<wgt id='1836'> +8.3406231e+04 </wgt>
<wgt id='1837'> +8.2852354e+04 </wgt>
<wgt id='1838'> +8.3198592e+04 </wgt>
<wgt id='1839'> +8.3070381e+04 </wgt>
<wgt id='1840'> +8.2787028e+04 </wgt>
<wgt id='1841'> +8.3493937e+04 </wgt>
<wgt id='1842'> +8.3153234e+04 </wgt>
<wgt id='1843'> +8.3405731e+04 </wgt>
<wgt id='1844'> +8.3184271e+04 </wgt>
<wgt id='1845'> +8.3067200e+04 </wgt>
<wgt id='1846'> +8.3301712e+04 </wgt>
<wgt id='1847'> +8.2958947e+04 </wgt>
<wgt id='1848'> +8.2440820e+04 </wgt>
<wgt id='1849'> +8.3737784e+04 </wgt>
<wgt id='1850'> +8.3465409e+04 </wgt>
<wgt id='1851'> +8.2840276e+04 </wgt>
<wgt id='1852'> +8.2725924e+04 </wgt>
<wgt id='1853'> +8.3368945e+04 </wgt>
<wgt id='1854'> +8.2848723e+04 </wgt>
<wgt id='1855'> +8.3270456e+04 </wgt>
<wgt id='1856'> +7.2753754e+04 </wgt>
<wgt id='1857'> +7.2740442e+04 </wgt>
<wgt id='1858'> +7.2744486e+04 </wgt>
<wgt id='1859'> +7.2764138e+04 </wgt>
<wgt id='1860'> +7.2755106e+04 </wgt>
<wgt id='1861'> +7.2811043e+04 </wgt>
<wgt id='1862'> +7.2494492e+04 </wgt>
<wgt id='1863'> +7.2730841e+04 </wgt>
<wgt id='1864'> +7.2624120e+04 </wgt>
<wgt id='1865'> +7.2602191e+04 </wgt>
<wgt id='1866'> +7.3006423e+04 </wgt>
<wgt id='1867'> +7.2672536e+04 </wgt>
<wgt id='1868'> +7.2698394e+04 </wgt>
<wgt id='1869'> +7.2816831e+04 </wgt>
<wgt id='1870'> +7.2650562e+04 </wgt>
<wgt id='1871'> +7.2808928e+04 </wgt>
<wgt id='1872'> +7.2817250e+04 </wgt>
<wgt id='1873'> +7.2724061e+04 </wgt>
<wgt id='1874'> +7.2833127e+04 </wgt>
<wgt id='1875'> +7.2768316e+04 </wgt>
<wgt id='1876'> +7.2433725e+04 </wgt>
<wgt id='1877'> +7.2676148e+04 </wgt>
<wgt id='1878'> +7.2571015e+04 </wgt>
<wgt id='1879'> +7.2942100e+04 </wgt>
<wgt id='1880'> +7.2952740e+04 </wgt>
<wgt id='1881'> +7.2997634e+04 </wgt>
<wgt id='1882'> +7.2682479e+04 </wgt>
<wgt id='1883'> +7.2796560e+04 </wgt>
<wgt id='1884'> +7.2491265e+04 </wgt>
<wgt id='1885'> +7.2204102e+04 </wgt>
<wgt id='1886'> +6.8651551e+04 </wgt>
<wgt id='1887'> +7.1052264e+04 </wgt>
<wgt id='1888'> +6.3123732e+04 </wgt>
<wgt id='1889'> +7.2039031e+04 </wgt>
</rwgt>
</event>
<event npLO=" -1 " npNLO=" 0 ">
 5      1 +7.4519530e+04 3.08433520e+01 7.55820760e-03 1.19995960e-01
       -2 -1    0    0    0  501 +0.0000000000e+00 +0.0000000000e+00 +2.0634177687e+02 2.0634177687e+02 0.0000000000e+00 0.0000e+00 1.0000e+00
        3 -1    0    0  501    0 +0.0000000000e+00 +0.0000000000e+00 -7.5913669595e+00 7.5913669595e+00 0.0000000000e+00 0.0000e+00 -1.0000e+00
      -24  2    1    2    0    0 +0.0000000000e+00 +0.0000000000e+00 +1.9875040991e+02 2.1393314383e+02 7.9155951066e+01 0.0000e+00 0.0000e+00
       13  1    3    3    0    0 -1.5990801158e+00 -3.0801871326e+01 +3.2345283338e+01 4.4693732096e+01 0.0000000000e+00 0.0000e+00 -1.0000e+00
      -14  1    3    3    0    0 +1.5990801158e+00 +3.0801871326e+01 +1.6640512657e+02 1.6923941173e+02 0.0000000000e+00 0.0000e+00 1.0000e+00
#aMCatNLO 1  0  0  1  2 0.37560401E+02 0.00000000E+00 -9  5  0 0.00000000E+00 0.00000000E+00 0.00000000E+00 0.00000000E+00 0.00000000E+00
<rwgt>
<wgt id='1001'> +7.4519530e+04 </wgt>
<wgt id='1002'> +7.6802762e+04 </wgt>
<wgt id='1003'> +7.1672979e+04 </wgt>
<wgt id='1004'> +8.2667596e+04 </wgt>
<wgt id='1005'> +8.5313420e+04 </wgt>
<wgt id='1006'> +7.9368994e+04 </wgt>
<wgt id='1007'> +6.5345096e+04 </wgt>
<wgt id='1008'> +6.7259832e+04 </wgt>
<wgt id='1009'> +6.2957956e+04 </wgt>
<wgt id='1010'> +7.4519530e+04 </wgt>
<wgt id='1011'> +7.4711956e+04 </wgt>
<wgt id='1012'> +7.4470808e+04 </wgt>
<wgt id='1013'> +7.4834838e+04 </wgt>
<wgt id='1014'> +7.2865606e+04 </wgt>
<wgt id='1015'> +7.5665343e+04 </wgt>
<wgt id='1016'> +7.3050631e+04 </wgt>
<wgt id='1017'> +7.3321723e+04 </wgt>
<wgt id='1018'> +7.4293023e+04 </wgt>
<wgt id='1019'> +7.4381543e+04 </wgt>
<wgt id='1020'> +7.5350677e+04 </wgt>
<wgt id='1021'> +7.5396094e+04 </wgt>
<wgt id='1022'> +7.3382612e+04 </wgt>
<wgt id='1023'> +7.4547591e+04 </wgt>
<wgt id='1024'> +7.4061073e+04 </wgt>
<wgt id='1025'> +7.4107976e+04 </wgt>
<wgt id='1026'> +7.4758776e+04 </wgt>
<wgt id='1027'> +7.4259910e+04 </wgt>
<wgt id='1028'> +7.4237442e+04 </wgt>
<wgt id='1029'> +7.4916960e+04 </wgt>
<wgt id='1030'> +7.4474155e+04 </wgt>
<wgt id='1031'> +7.3987859e+04 </wgt>
<wgt id='1032'> +7.4602550e+04 </wgt>
<wgt id='1033'> +7.4583651e+04 </wgt>
<wgt id='1034'> +7.4276570e+04 </wgt>
<wgt id='1035'> +7.4727534e+04 </wgt>
<wgt id='1036'> +7.4375428e+04 </wgt>
<wgt id='1037'> +7.5094109e+04 </wgt>
<wgt id='1038'> +7.4375761e+04 </wgt>
<wgt id='1039'> +7.4704758e+04 </wgt>
<wgt id='1040'> +7.4619616e+04 </wgt>
<wgt id='1041'> +7.5174249e+04 </wgt>
<wgt id='1042'> +7.4326380e+04 </wgt>
<wgt id='1043'> +7.4470423e+04 </wgt>
<wgt id='1044'> +7.4497566e+04 </wgt>
<wgt id='1045'> +7.4361469e+04 </wgt>
<wgt id='1046'> +7.4465654e+04 </wgt>
<wgt id='1047'> +7.4718748e+04 </wgt>
<wgt id='1048'> +7.4602804e+04 </wgt>
<wgt id='1049'> +7.4655814e+04 </wgt>
<wgt id='1050'> +7.4398541e+04 </wgt>
<wgt id='1051'> +7.4281849e+04 </wgt>
<wgt id='1052'> +7.4322944e+04 </wgt>
<wgt id='1053'> +7.4632999e+04 </wgt>
<wgt id='1054'> +7.4620869e+04 </wgt>
<wgt id='1055'> +7.4460714e+04 </wgt>
<wgt id='1056'> +7.4673143e+04 </wgt>
<wgt id='1057'> +7.4558921e+04 </wgt>
<wgt id='1058'> +7.4937854e+04 </wgt>
<wgt id='1059'> +7.4026440e+04 </wgt>
<wgt id='1060'> +7.4631649e+04 </wgt>
<wgt id='1061'> +7.4584613e+04 </wgt>
<wgt id='1062'> +7.4417771e+04 </wgt>
<wgt id='1063'> +7.4327605e+04 </wgt>
<wgt id='1064'> +7.4511076e+04 </wgt>
<wgt id='1065'> +7.4730711e+04 </wgt>
<wgt id='1066'> +7.4627848e+04 </wgt>
<wgt id='1067'> +7.4741122e+04 </wgt>
<wgt id='1068'> +7.4679508e+04 </wgt>
<wgt id='1069'> +7.4538318e+04 </wgt>
<wgt id='1070'> +7.4666756e+04 </wgt>
<wgt id='1071'> +7.4575224e+04 </wgt>
<wgt id='1072'> +7.4456763e+04 </wgt>
<wgt id='1073'> +7.4346581e+04 </wgt>
<wgt id='1074'> +7.4543944e+04 </wgt>
<wgt id='1075'> +7.4542479e+04 </wgt>
<wgt id='1076'> +7.4662277e+04 </wgt>
<wgt id='1077'> +7.4643990e+04 </wgt>
<wgt id='1078'> +7.4656495e+04 </wgt>
<wgt id='1079'> +7.4421243e+04 </wgt>
<wgt id='1080'> +7.4601238e+04 </wgt>
<wgt id='1081'> +7.4491185e+04 </wgt>
<wgt id='1082'> +7.4418165e+04 </wgt>
<wgt id='1083'> +7.4630002e+04 </wgt>
<wgt id='1084'> +7.4501200e+04 </wgt>
<wgt id='1085'> +7.4633339e+04 </wgt>
<wgt id='1086'> +7.4509567e+04 </wgt>
<wgt id='1087'> +7.4541517e+04 </wgt>
<wgt id='1088'> +7.4620312e+04 </wgt>
<wgt id='1089'> +7.4414238e+04 </wgt>
<wgt id='1090'> +7.4495384e+04 </wgt>
<wgt id='1091'> +7.4532313e+04 </wgt>
<wgt id='1092'> +7.4578038e+04 </wgt>
<wgt id='1093'> +7.4579613e+04 </wgt>
<wgt id='1094'> +7.4677092e+04 </wgt>
<wgt id='1095'> +7.4503366e+04 </wgt>
<wgt id='1096'> +7.4448915e+04 </wgt>
<wgt id='1097'> +7.4525664e+04 </wgt>
<wgt id='1098'> +7.4474911e+04 </wgt>
<wgt id='1099'> +7.4601331e+04 </wgt>
<wgt id='1100'> +7.4502258e+04 </wgt>
<wgt id='1101'> +7.4541745e+04 </wgt>
<wgt id='1102'> +7.4553318e+04 </wgt>
<wgt id='1103'> +7.4584159e+04 </wgt>
<wgt id='1104'> +7.4575667e+04 </wgt>
<wgt id='1105'> +7.4478810e+04 </wgt>
<wgt id='1106'> +7.4603292e+04 </wgt>
<wgt id='1107'> +7.4479429e+04 </wgt>
<wgt id='1108'> +7.4542112e+04 </wgt>
<wgt id='1109'> +7.4547920e+04 </wgt>
<wgt id='1110'> +7.4519530e+04 </wgt>
<wgt id='1111'> +7.4068886e+04 </wgt>
<wgt id='1112'> +7.3942248e+04 </wgt>
<wgt id='1113'> +7.4519530e+04 </wgt>
<wgt id='1114'> +8.0085097e+04 </wgt>
<wgt id='1115'> +7.6249876e+04 </wgt>
<wgt id='1116'> +7.6012670e+04 </wgt>
<wgt id='1117'> +7.6649973e+04 </wgt>
<wgt id='1118'> +7.1786196e+04 </wgt>
<wgt id='1119'> +6.9616624e+04 </wgt>
<wgt id='1120'> +7.3761493e+04 </wgt>
<wgt id='1121'> +7.6168638e+04 </wgt>
<wgt id='1122'> +7.3443902e+04 </wgt>
<wgt id='1123'> +6.9724016e+04 </wgt>
<wgt id='1124'> +7.2866173e+04 </wgt>
<wgt id='1125'> +7.5428541e+04 </wgt>
<wgt id='1126'> +7.5462990e+04 </wgt>
<wgt id='1127'> +7.3121340e+04 </wgt>
<wgt id='1128'> +7.6718288e+04 </wgt>
<wgt id='1129'> +7.4227873e+04 </wgt>
<wgt id='1130'> +6.4768519e+04 </wgt>
<wgt id='1131'> +7.7610429e+04 </wgt>
<wgt id='1132'> +7.6058223e+04 </wgt>
<wgt id='1133'> +7.3406880e+04 </wgt>
<wgt id='1134'> +7.6603904e+04 </wgt>
<wgt id='1135'> +7.9356662e+04 </wgt>
<wgt id='1136'> +7.5072085e+04 </wgt>
<wgt id='1137'> +7.7969373e+04 </wgt>
<wgt id='1138'> +7.4745906e+04 </wgt>
<wgt id='1139'> +7.4145666e+04 </wgt>
<wgt id='1140'> +6.6068817e+04 </wgt>
<wgt id='1141'> +7.6779349e+04 </wgt>
<wgt id='1142'> +6.9729438e+04 </wgt>
<wgt id='1143'> +6.6279565e+04 </wgt>
<wgt id='1144'> +7.2764466e+04 </wgt>
<wgt id='1145'> +7.5750217e+04 </wgt>
<wgt id='1146'> +7.5814848e+04 </wgt>
<wgt id='1147'> +7.7190589e+04 </wgt>
<wgt id='1148'> +7.1886323e+04 </wgt>
<wgt id='1149'> +7.7182200e+04 </wgt>
<wgt id='1150'> +8.0647954e+04 </wgt>
<wgt id='1151'> +6.8257713e+04 </wgt>
<wgt id='1152'> +7.7479178e+04 </wgt>
<wgt id='1153'> +7.5140696e+04 </wgt>
<wgt id='1154'> +7.5091584e+04 </wgt>
<wgt id='1155'> +7.6489640e+04 </wgt>
<wgt id='1156'> +7.3286529e+04 </wgt>
<wgt id='1157'> +7.2736648e+04 </wgt>
<wgt id='1158'> +8.1502652e+04 </wgt>
<wgt id='1159'> +7.4690210e+04 </wgt>
<wgt id='1160'> +7.6125593e+04 </wgt>
<wgt id='1161'> +7.3831873e+04 </wgt>
<wgt id='1162'> +7.0533886e+04 </wgt>
<wgt id='1163'> +7.1202016e+04 </wgt>
<wgt id='1164'> +7.5591790e+04 </wgt>
<wgt id='1165'> +7.4069107e+04 </wgt>
<wgt id='1166'> +6.7280708e+04 </wgt>
<wgt id='1167'> +7.7272129e+04 </wgt>
<wgt id='1168'> +8.0267511e+04 </wgt>
<wgt id='1169'> +7.9171291e+04 </wgt>
<wgt id='1170'> +7.8956015e+04 </wgt>
<wgt id='1171'> +7.6567538e+04 </wgt>
<wgt id='1172'> +6.5216012e+04 </wgt>
<wgt id='1173'> +7.5194768e+04 </wgt>
<wgt id='1174'> +7.5595468e+04 </wgt>
<wgt id='1175'> +7.5442952e+04 </wgt>
<wgt id='1176'> +6.9699531e+04 </wgt>
<wgt id='1177'> +7.4607584e+04 </wgt>
<wgt id='1178'> +7.4570207e+04 </wgt>
<wgt id='1179'> +7.3437074e+04 </wgt>
<wgt id='1180'> +8.3521181e+04 </wgt>
<wgt id='1181'> +6.9074772e+04 </wgt>
<wgt id='1182'> +7.4516103e+04 </wgt>
<wgt id='1183'> +7.4805033e+04 </wgt>
<wgt id='1184'> +6.8815677e+04 </wgt>
<wgt id='1185'> +7.4428693e+04 </wgt>
<wgt id='1186'> +7.1194788e+04 </wgt>
<wgt id='1187'> +7.3440561e+04 </wgt>
<wgt id='1188'> +7.1341215e+04 </wgt>
<wgt id='1189'> +7.2879696e+04 </wgt>
<wgt id='1190'> +7.6658126e+04 </wgt>
<wgt id='1191'> +7.4633014e+04 </wgt>
<wgt id='1192'> +7.1921858e+04 </wgt>
<wgt id='1193'> +6.8265630e+04 </wgt>
<wgt id='1194'> +7.8084960e+04 </wgt>
<wgt id='1195'> +7.4227873e+04 </wgt>
<wgt id='1196'> +7.2816250e+04 </wgt>
<wgt id='1197'> +7.6034992e+04 </wgt>
<wgt id='1198'> +7.6394630e+04 </wgt>
<wgt id='1199'> +7.8641566e+04 </wgt>
<wgt id='1200'> +7.8586904e+04 </wgt>
<wgt id='1201'> +7.0207282e+04 </wgt>
<wgt id='1202'> +7.1499173e+04 </wgt>
<wgt id='1203'> +7.5770501e+04 </wgt>
<wgt id='1204'> +7.8784969e+04 </wgt>
<wgt id='1205'> +7.2192353e+04 </wgt>
<wgt id='1206'> +7.3616054e+04 </wgt>
<wgt id='1207'> +7.1609606e+04 </wgt>
<wgt id='1208'> +8.6138638e+04 </wgt>
<wgt id='1209'> +7.6767357e+04 </wgt>
<wgt id='1210'> +7.3253960e+04 </wgt>
<wgt id='1211'> +7.0979934e+04 </wgt>
<wgt id='1212'> +7.7703481e+04 </wgt>
<wgt id='1213'> +7.8181154e+04 </wgt>
<wgt id='1214'> +7.4330117e+04 </wgt>
<wgt id='1215'> +7.3842469e+04 </wgt>
<wgt id='1216'> +7.4315183e+04 </wgt>
<wgt id='1217'> +7.4561817e+04 </wgt>
<wgt id='1218'> +7.4199308e+04 </wgt>
<wgt id='1219'> +7.3574599e+04 </wgt>
<wgt id='1220'> +7.3732344e+04 </wgt>
<wgt id='1221'> +7.4295997e+04 </wgt>
<wgt id='1222'> +7.4214336e+04 </wgt>
<wgt id='1223'> +7.3714470e+04 </wgt>
<wgt id='1224'> +7.3833596e+04 </wgt>
<wgt id='1225'> +7.3553199e+04 </wgt>
<wgt id='1226'> +7.3558200e+04 </wgt>
<wgt id='1227'> +7.1512151e+04 </wgt>
<wgt id='1228'> +7.3111894e+04 </wgt>
<wgt id='1229'> +7.4182969e+04 </wgt>
<wgt id='1230'> +7.3222129e+04 </wgt>
<wgt id='1231'> +7.4422656e+04 </wgt>
<wgt id='1232'> +7.3210262e+04 </wgt>
<wgt id='1233'> +7.5360104e+04 </wgt>
<wgt id='1234'> +7.4079113e+04 </wgt>
<wgt id='1235'> +7.3016567e+04 </wgt>
<wgt id='1236'> +7.3934287e+04 </wgt>
<wgt id='1237'> +7.3173602e+04 </wgt>
<wgt id='1238'> +7.4248687e+04 </wgt>
<wgt id='1239'> +7.3182804e+04 </wgt>
<wgt id='1240'> +7.3631994e+04 </wgt>
<wgt id='1241'> +7.3729609e+04 </wgt>
<wgt id='1242'> +7.3550650e+04 </wgt>
<wgt id='1243'> +7.3497817e+04 </wgt>
<wgt id='1244'> +7.3902502e+04 </wgt>
<wgt id='1245'> +7.3723303e+04 </wgt>
<wgt id='1246'> +7.3568167e+04 </wgt>
<wgt id='1247'> +7.3959299e+04 </wgt>
<wgt id='1248'> +7.3253067e+04 </wgt>
<wgt id='1249'> +7.3642476e+04 </wgt>
<wgt id='1250'> +7.3885404e+04 </wgt>
<wgt id='1251'> +7.3724747e+04 </wgt>
<wgt id='1252'> +7.3890607e+04 </wgt>
<wgt id='1253'> +7.3416428e+04 </wgt>
<wgt id='1254'> +7.4176755e+04 </wgt>
<wgt id='1255'> +7.3170620e+04 </wgt>
<wgt id='1256'> +7.4140347e+04 </wgt>
<wgt id='1257'> +7.3514569e+04 </wgt>
<wgt id='1258'> +7.3424053e+04 </wgt>
<wgt id='1259'> +7.3268870e+04 </wgt>
<wgt id='1260'> +7.3463430e+04 </wgt>
<wgt id='1261'> +7.3328700e+04 </wgt>
<wgt id='1262'> +7.3684585e+04 </wgt>
<wgt id='1263'> +7.3678399e+04 </wgt>
<wgt id='1264'> +7.3358627e+04 </wgt>
<wgt id='1265'> +7.3534046e+04 </wgt>
<wgt id='1266'> +7.3903005e+04 </wgt>
<wgt id='1267'> +7.3409264e+04 </wgt>
<wgt id='1268'> +7.3590939e+04 </wgt>
<wgt id='1269'> +7.3621050e+04 </wgt>
<wgt id='1270'> +7.3762399e+04 </wgt>
<wgt id='1271'> +7.3670291e+04 </wgt>
<wgt id='1272'> +7.3677312e+04 </wgt>
<wgt id='1273'> +7.4042006e+04 </wgt>
<wgt id='1274'> +7.4093497e+04 </wgt>
<wgt id='1275'> +7.3749734e+04 </wgt>
<wgt id='1276'> +7.3668481e+04 </wgt>
<wgt id='1277'> +7.3801572e+04 </wgt>
<wgt id='1278'> +7.3652946e+04 </wgt>
<wgt id='1279'> +7.3807207e+04 </wgt>
<wgt id='1280'> +7.3537883e+04 </wgt>
<wgt id='1281'> +7.3605918e+04 </wgt>
<wgt id='1282'> +7.3875331e+04 </wgt>
<wgt id='1283'> +7.3893200e+04 </wgt>
<wgt id='1284'> +7.3725033e+04 </wgt>
<wgt id='1285'> +7.3671156e+04 </wgt>
<wgt id='1286'> +7.3795575e+04 </wgt>
<wgt id='1287'> +7.3571849e+04 </wgt>
<wgt id='1288'> +7.3763978e+04 </wgt>
<wgt id='1289'> +7.3783398e+04 </wgt>
<wgt id='1290'> +7.3659498e+04 </wgt>
<wgt id='1291'> +7.3601156e+04 </wgt>
<wgt id='1292'> +7.3763343e+04 </wgt>
<wgt id='1293'> +7.3425185e+04 </wgt>
<wgt id='1294'> +7.3647334e+04 </wgt>
<wgt id='1295'> +7.3734393e+04 </wgt>
<wgt id='1296'> +7.3593282e+04 </wgt>
<wgt id='1297'> +7.3846242e+04 </wgt>
<wgt id='1298'> +7.3645836e+04 </wgt>
<wgt id='1299'> +7.3703710e+04 </wgt>
<wgt id='1300'> +7.3733054e+04 </wgt>
<wgt id='1301'> +7.3744968e+04 </wgt>
<wgt id='1302'> +7.3756066e+04 </wgt>
<wgt id='1303'> +7.3774976e+04 </wgt>
<wgt id='1304'> +7.3675167e+04 </wgt>
<wgt id='1305'> +7.3625317e+04 </wgt>
<wgt id='1306'> +7.3824332e+04 </wgt>
<wgt id='1307'> +7.3644843e+04 </wgt>
<wgt id='1308'> +7.3669191e+04 </wgt>
<wgt id='1309'> +7.3767538e+04 </wgt>
<wgt id='1310'> +7.3697495e+04 </wgt>
<wgt id='1311'> +7.3667082e+04 </wgt>
<wgt id='1312'> +7.3427220e+04 </wgt>
<wgt id='1313'> +7.3802774e+04 </wgt>
<wgt id='1314'> +7.3727356e+04 </wgt>
<wgt id='1315'> +7.3663112e+04 </wgt>
<wgt id='1316'> +7.3845629e+04 </wgt>
<wgt id='1317'> +7.3687361e+04 </wgt>
<wgt id='1318'> +7.3795497e+04 </wgt>
<wgt id='1319'> +7.3740674e+04 </wgt>
<wgt id='1320'> +7.3733010e+04 </wgt>
<wgt id='1321'> +7.3650977e+04 </wgt>
<wgt id='1322'> +7.3775123e+04 </wgt>
<wgt id='1323'> +7.3638330e+04 </wgt>
<wgt id='1324'> +7.3384043e+04 </wgt>
<wgt id='1325'> +7.3427245e+04 </wgt>
<wgt id='1326'> +7.0805813e+04 </wgt>
<wgt id='1327'> +6.9228558e+04 </wgt>
<wgt id='1328'> +7.6206968e+04 </wgt>
<wgt id='1329'> +7.7462859e+04 </wgt>
<wgt id='1330'> +7.4377736e+04 </wgt>
<wgt id='1331'> +7.6371948e+04 </wgt>
<wgt id='1332'> +7.6148992e+04 </wgt>
<wgt id='1333'> +7.5813011e+04 </wgt>
<wgt id='1334'> +7.7323921e+04 </wgt>
<wgt id='1335'> +7.6303809e+04 </wgt>
<wgt id='1336'> +7.5811219e+04 </wgt>
<wgt id='1337'> +7.3863026e+04 </wgt>
<wgt id='1338'> +7.6349079e+04 </wgt>
<wgt id='1339'> +7.6799675e+04 </wgt>
<wgt id='1340'> +7.6373569e+04 </wgt>
<wgt id='1341'> +7.9421513e+04 </wgt>
<wgt id='1342'> +7.5887214e+04 </wgt>
<wgt id='1343'> +7.8228935e+04 </wgt>
<wgt id='1344'> +7.6500231e+04 </wgt>
<wgt id='1345'> +7.6607145e+04 </wgt>
<wgt id='1346'> +7.6789557e+04 </wgt>
<wgt id='1347'> +7.6508397e+04 </wgt>
<wgt id='1348'> +7.7185605e+04 </wgt>
<wgt id='1349'> +7.6526975e+04 </wgt>
<wgt id='1350'> +7.5521427e+04 </wgt>
<wgt id='1351'> +7.6348087e+04 </wgt>
<wgt id='1352'> +7.5925184e+04 </wgt>
<wgt id='1353'> +7.5179454e+04 </wgt>
<wgt id='1354'> +7.6507184e+04 </wgt>
<wgt id='1355'> +7.6444635e+04 </wgt>
<wgt id='1356'> +7.5984113e+04 </wgt>
<wgt id='1357'> +7.5954906e+04 </wgt>
<wgt id='1358'> +7.4156799e+04 </wgt>
<wgt id='1359'> +7.6430323e+04 </wgt>
<wgt id='1360'> +7.4829057e+04 </wgt>
<wgt id='1361'> +7.5196055e+04 </wgt>
<wgt id='1362'> +7.3489285e+04 </wgt>
<wgt id='1363'> +7.7581270e+04 </wgt>
<wgt id='1364'> +7.7232459e+04 </wgt>
<wgt id='1365'> +7.7250499e+04 </wgt>
<wgt id='1366'> +7.6776073e+04 </wgt>
<wgt id='1367'> +7.3488671e+04 </wgt>
<wgt id='1368'> +7.4085385e+04 </wgt>
<wgt id='1369'> +7.7626555e+04 </wgt>
<wgt id='1370'> +7.6457690e+04 </wgt>
<wgt id='1371'> +7.5157740e+04 </wgt>
<wgt id='1372'> +7.5035387e+04 </wgt>
<wgt id='1373'> +7.6037836e+04 </wgt>
<wgt id='1374'> +7.6587730e+04 </wgt>
<wgt id='1375'> +7.4659532e+04 </wgt>
<wgt id='1376'> +7.4754406e+04 </wgt>
<wgt id='1377'> +7.5565566e+04 </wgt>
<wgt id='1378'> +7.8355365e+04 </wgt>
<wgt id='1379'> +7.5835382e+04 </wgt>
<wgt id='1380'> +7.5187652e+04 </wgt>
<wgt id='1381'> +7.4851272e+04 </wgt>
<wgt id='1382'> +7.9306927e+04 </wgt>
<wgt id='1383'> +7.6707636e+04 </wgt>
<wgt id='1384'> +7.6704020e+04 </wgt>
<wgt id='1385'> +7.6678203e+04 </wgt>
<wgt id='1386'> +7.5887951e+04 </wgt>
<wgt id='1387'> +7.4290363e+04 </wgt>
<wgt id='1388'> +7.5868138e+04 </wgt>
<wgt id='1389'> +7.4315832e+04 </wgt>
<wgt id='1390'> +8.1036249e+04 </wgt>
<wgt id='1391'> +7.5700445e+04 </wgt>
<wgt id='1392'> +7.6148951e+04 </wgt>
<wgt id='1393'> +7.8144103e+04 </wgt>
<wgt id='1394'> +7.7250499e+04 </wgt>
<wgt id='1395'> +7.7586657e+04 </wgt>
<wgt id='1396'> +7.3544601e+04 </wgt>
<wgt id='1397'> +7.5776792e+04 </wgt>
<wgt id='1398'> +7.6344409e+04 </wgt>
<wgt id='1399'> +7.4785050e+04 </wgt>
<wgt id='1400'> +7.5764667e+04 </wgt>
<wgt id='1401'> +7.5521669e+04 </wgt>
<wgt id='1402'> +7.4903116e+04 </wgt>
<wgt id='1403'> +7.5897163e+04 </wgt>
<wgt id='1404'> +7.4932368e+04 </wgt>
<wgt id='1405'> +7.6863210e+04 </wgt>
<wgt id='1406'> +7.5017280e+04 </wgt>
<wgt id='1407'> +7.4955411e+04 </wgt>
<wgt id='1408'> +7.6317613e+04 </wgt>
<wgt id='1409'> +7.6581642e+04 </wgt>
<wgt id='1410'> +7.4264186e+04 </wgt>
<wgt id='1411'> +7.6285969e+04 </wgt>
<wgt id='1412'> +7.4967545e+04 </wgt>
<wgt id='1413'> +7.7772483e+04 </wgt>
<wgt id='1414'> +8.0507882e+04 </wgt>
<wgt id='1415'> +7.9374524e+04 </wgt>
<wgt id='1416'> +7.6545205e+04 </wgt>
<wgt id='1417'> +7.7821873e+04 </wgt>
<wgt id='1418'> +7.4618825e+04 </wgt>
<wgt id='1419'> +7.6351082e+04 </wgt>
<wgt id='1420'> +8.0217723e+04 </wgt>
<wgt id='1421'> +7.6229904e+04 </wgt>
<wgt id='1422'> +7.5673669e+04 </wgt>
<wgt id='1423'> +7.7784802e+04 </wgt>
<wgt id='1424'> +7.8282736e+04 </wgt>
<wgt id='1425'> +7.5587801e+04 </wgt>
<wgt id='1426'> +7.5372351e+04 </wgt>
<wgt id='1427'> +7.4601294e+04 </wgt>
<wgt id='1428'> +7.4292853e+04 </wgt>
<wgt id='1429'> +7.6871504e+04 </wgt>
<wgt id='1430'> +7.5841256e+04 </wgt>
<wgt id='1431'> +7.6291590e+04 </wgt>
<wgt id='1432'> +7.6065729e+04 </wgt>
<wgt id='1433'> +7.6796803e+04 </wgt>
<wgt id='1434'> +7.6193371e+04 </wgt>
<wgt id='1435'> +7.6409985e+04 </wgt>
<wgt id='1436'> +7.7106853e+04 </wgt>
<wgt id='1437'> +7.6361360e+04 </wgt>
<wgt id='1438'> +7.6242998e+04 </wgt>
<wgt id='1439'> +7.6913105e+04 </wgt>
<wgt id='1440'> +7.6147910e+04 </wgt>
<wgt id='1441'> +7.6165561e+04 </wgt>
<wgt id='1442'> +7.5927020e+04 </wgt>
<wgt id='1443'> +7.6319123e+04 </wgt>
<wgt id='1444'> +7.6736030e+04 </wgt>
<wgt id='1445'> +7.5968455e+04 </wgt>
<wgt id='1446'> +7.6145433e+04 </wgt>
<wgt id='1447'> +7.6266039e+04 </wgt>
<wgt id='1448'> +7.6463747e+04 </wgt>
<wgt id='1449'> +7.6394320e+04 </wgt>
<wgt id='1450'> +7.6474649e+04 </wgt>
<wgt id='1451'> +7.6343208e+04 </wgt>
<wgt id='1452'> +7.6482641e+04 </wgt>
<wgt id='1453'> +7.6138417e+04 </wgt>
<wgt id='1454'> +7.6252739e+04 </wgt>
<wgt id='1455'> +7.6338036e+04 </wgt>
<wgt id='1456'> +7.6161544e+04 </wgt>
<wgt id='1457'> +7.6575147e+04 </wgt>
<wgt id='1458'> +7.6200636e+04 </wgt>
<wgt id='1459'> +7.6166588e+04 </wgt>
<wgt id='1460'> +7.6437929e+04 </wgt>
<wgt id='1461'> +7.6114420e+04 </wgt>
<wgt id='1462'> +7.6078696e+04 </wgt>
<wgt id='1463'> +7.6330755e+04 </wgt>
<wgt id='1464'> +7.6272352e+04 </wgt>
<wgt id='1465'> +7.6369359e+04 </wgt>
<wgt id='1466'> +7.6245373e+04 </wgt>
<wgt id='1467'> +7.6232132e+04 </wgt>
<wgt id='1468'> +7.6261150e+04 </wgt>
<wgt id='1469'> +7.6243095e+04 </wgt>
<wgt id='1470'> +7.6386513e+04 </wgt>
<wgt id='1471'> +7.6354072e+04 </wgt>
<wgt id='1472'> +7.6297933e+04 </wgt>
<wgt id='1473'> +7.6376761e+04 </wgt>
<wgt id='1474'> +7.6248055e+04 </wgt>
<wgt id='1475'> +7.6367817e+04 </wgt>
<wgt id='1476'> +7.6350374e+04 </wgt>
<wgt id='1477'> +7.6286234e+04 </wgt>
<wgt id='1478'> +7.6363122e+04 </wgt>
<wgt id='1479'> +7.6346072e+04 </wgt>
<wgt id='1480'> +7.6214585e+04 </wgt>
<wgt id='1481'> +7.6336590e+04 </wgt>
<wgt id='1482'> +7.6871504e+04 </wgt>
<wgt id='1483'> +7.5841256e+04 </wgt>
<wgt id='1484'> +7.6084515e+04 </wgt>
<wgt id='1485'> +7.4450904e+04 </wgt>
<wgt id='1486'> +7.6340180e+04 </wgt>
<wgt id='1487'> +7.6800701e+04 </wgt>
<wgt id='1488'> +7.5398780e+04 </wgt>
<wgt id='1489'> +7.4456639e+04 </wgt>
<wgt id='1490'> +7.7447656e+04 </wgt>
<wgt id='1491'> +7.8137208e+04 </wgt>
<wgt id='1492'> +7.4858471e+04 </wgt>
<wgt id='1493'> +7.5836271e+04 </wgt>
<wgt id='1494'> +7.6370268e+04 </wgt>
<wgt id='1495'> +7.6539826e+04 </wgt>
<wgt id='1496'> +7.6033059e+04 </wgt>
<wgt id='1497'> +7.9970922e+04 </wgt>
<wgt id='1498'> +7.6881053e+04 </wgt>
<wgt id='1499'> +7.6446881e+04 </wgt>
<wgt id='1500'> +7.8641097e+04 </wgt>
<wgt id='1501'> +7.8606766e+04 </wgt>
<wgt id='1502'> +7.6173243e+04 </wgt>
<wgt id='1503'> +7.6938592e+04 </wgt>
<wgt id='1504'> +7.6719008e+04 </wgt>
<wgt id='1505'> +7.7007980e+04 </wgt>
<wgt id='1506'> +7.6811525e+04 </wgt>
<wgt id='1507'> +7.5293073e+04 </wgt>
<wgt id='1508'> +7.8186999e+04 </wgt>
<wgt id='1509'> +7.3952935e+04 </wgt>
<wgt id='1510'> +7.4095343e+04 </wgt>
<wgt id='1511'> +7.5234849e+04 </wgt>
<wgt id='1512'> +7.7558576e+04 </wgt>
<wgt id='1513'> +7.6817341e+04 </wgt>
<wgt id='1514'> +7.6391426e+04 </wgt>
<wgt id='1515'> +7.6300579e+04 </wgt>
<wgt id='1516'> +7.8308751e+04 </wgt>
<wgt id='1517'> +7.5943513e+04 </wgt>
<wgt id='1518'> +7.5948528e+04 </wgt>
<wgt id='1519'> +7.4742187e+04 </wgt>
<wgt id='1520'> +7.5950365e+04 </wgt>
<wgt id='1521'> +7.7182102e+04 </wgt>
<wgt id='1522'> +7.6478422e+04 </wgt>
<wgt id='1523'> +7.5659187e+04 </wgt>
<wgt id='1524'> +7.4802822e+04 </wgt>
<wgt id='1525'> +7.5564609e+04 </wgt>
<wgt id='1526'> +7.5064028e+04 </wgt>
<wgt id='1527'> +7.4962650e+04 </wgt>
<wgt id='1528'> +7.4925154e+04 </wgt>
<wgt id='1529'> +7.4961421e+04 </wgt>
<wgt id='1530'> +7.5009848e+04 </wgt>
<wgt id='1531'> +7.5499558e+04 </wgt>
<wgt id='1532'> +8.0716101e+04 </wgt>
<wgt id='1533'> +7.4710633e+04 </wgt>
<wgt id='1534'> +7.6121699e+04 </wgt>
<wgt id='1535'> +7.5825350e+04 </wgt>
<wgt id='1536'> +7.4820098e+04 </wgt>
<wgt id='1537'> +7.5910861e+04 </wgt>
<wgt id='1538'> +7.4042213e+04 </wgt>
<wgt id='1539'> +7.4821321e+04 </wgt>
<wgt id='1540'> +7.5717536e+04 </wgt>
<wgt id='1541'> +7.5590377e+04 </wgt>
<wgt id='1542'> +7.5143227e+04 </wgt>
<wgt id='1543'> +7.5362791e+04 </wgt>
<wgt id='1544'> +7.5826440e+04 </wgt>
<wgt id='1545'> +7.5944801e+04 </wgt>
<wgt id='1546'> +7.6262049e+04 </wgt>
<wgt id='1547'> +7.5244311e+04 </wgt>
<wgt id='1548'> +7.5924302e+04 </wgt>
<wgt id='1549'> +7.4972823e+04 </wgt>
<wgt id='1550'> +7.5208919e+04 </wgt>
<wgt id='1551'> +7.6741032e+04 </wgt>
<wgt id='1552'> +7.5614125e+04 </wgt>
<wgt id='1553'> +7.6446254e+04 </wgt>
<wgt id='1554'> +7.5235467e+04 </wgt>
<wgt id='1555'> +7.5387153e+04 </wgt>
<wgt id='1556'> +7.4948088e+04 </wgt>
<wgt id='1557'> +7.5048275e+04 </wgt>
<wgt id='1558'> +7.5526558e+04 </wgt>
<wgt id='1559'> +7.4869906e+04 </wgt>
<wgt id='1560'> +7.6150554e+04 </wgt>
<wgt id='1561'> +7.5882913e+04 </wgt>
<wgt id='1562'> +7.5994782e+04 </wgt>
<wgt id='1563'> +7.5303411e+04 </wgt>
<wgt id='1564'> +7.6939656e+04 </wgt>
<wgt id='1565'> +7.7730607e+04 </wgt>
<wgt id='1566'> +7.9165838e+04 </wgt>
<wgt id='1567'> +7.9564825e+04 </wgt>
<wgt id='1568'> +7.6526551e+04 </wgt>
<wgt id='1569'> +7.5460280e+04 </wgt>
<wgt id='1570'> +7.5456975e+04 </wgt>
<wgt id='1571'> +7.5293320e+04 </wgt>
<wgt id='1572'> +7.6180991e+04 </wgt>
<wgt id='1573'> +7.6844328e+04 </wgt>
<wgt id='1574'> +7.5519229e+04 </wgt>
<wgt id='1575'> +7.6884610e+04 </wgt>
<wgt id='1576'> +7.4978487e+04 </wgt>
<wgt id='1577'> +7.5632135e+04 </wgt>
<wgt id='1578'> +7.5063190e+04 </wgt>
<wgt id='1579'> +7.8098430e+04 </wgt>
<wgt id='1580'> +7.4710883e+04 </wgt>
<wgt id='1581'> +7.5566884e+04 </wgt>
<wgt id='1582'> +7.5681000e+04 </wgt>
<wgt id='1583'> +7.5885617e+04 </wgt>
<wgt id='1584'> +7.8047278e+04 </wgt>
<wgt id='1585'> +7.6912507e+04 </wgt>
<wgt id='1586'> +8.8191587e+04 </wgt>
<wgt id='1587'> +7.7172604e+04 </wgt>
<wgt id='1588'> +7.6871504e+04 </wgt>
<wgt id='1589'> +7.6452588e+04 </wgt>
<wgt id='1590'> +7.6561727e+04 </wgt>
<wgt id='1591'> +7.5841256e+04 </wgt>
<wgt id='1592'> +7.5799554e+04 </wgt>
<wgt id='1593'> +7.1842790e+04 </wgt>
<wgt id='1594'> +7.0360754e+04 </wgt>
<wgt id='1595'> +7.1400489e+04 </wgt>
<wgt id='1596'> +7.3744226e+04 </wgt>
<wgt id='1597'> +6.9951219e+04 </wgt>
<wgt id='1598'> +7.6075054e+04 </wgt>
<wgt id='1599'> +6.9708473e+04 </wgt>
<wgt id='1600'> +7.3294262e+04 </wgt>
<wgt id='1601'> +7.0874671e+04 </wgt>
<wgt id='1602'> +7.1460851e+04 </wgt>
<wgt id='1603'> +7.2270335e+04 </wgt>
<wgt id='1604'> +7.0401425e+04 </wgt>
<wgt id='1605'> +7.5016870e+04 </wgt>
<wgt id='1606'> +7.1175691e+04 </wgt>
<wgt id='1607'> +7.1409164e+04 </wgt>
<wgt id='1608'> +7.5514197e+04 </wgt>
<wgt id='1609'> +6.7762361e+04 </wgt>
<wgt id='1610'> +7.3004155e+04 </wgt>
<wgt id='1611'> +7.0446859e+04 </wgt>
<wgt id='1612'> +7.1571918e+04 </wgt>
<wgt id='1613'> +7.1141903e+04 </wgt>
<wgt id='1614'> +7.0403912e+04 </wgt>
<wgt id='1615'> +7.4520939e+04 </wgt>
<wgt id='1616'> +7.4618711e+04 </wgt>
<wgt id='1617'> +6.8118673e+04 </wgt>
<wgt id='1618'> +7.1324626e+04 </wgt>
<wgt id='1619'> +7.3595470e+04 </wgt>
<wgt id='1620'> +6.8519437e+04 </wgt>
<wgt id='1621'> +7.5814192e+04 </wgt>
<wgt id='1622'> +7.0510003e+04 </wgt>
<wgt id='1623'> +7.2168468e+04 </wgt>
<wgt id='1624'> +7.1150068e+04 </wgt>
<wgt id='1625'> +7.2058447e+04 </wgt>
<wgt id='1626'> +7.0625429e+04 </wgt>
<wgt id='1627'> +7.2506594e+04 </wgt>
<wgt id='1628'> +6.7810876e+04 </wgt>
<wgt id='1629'> +7.6191143e+04 </wgt>
<wgt id='1630'> +6.8983518e+04 </wgt>
<wgt id='1631'> +7.4991925e+04 </wgt>
<wgt id='1632'> +6.7320096e+04 </wgt>
<wgt id='1633'> +7.8181951e+04 </wgt>
<wgt id='1634'> +7.2090928e+04 </wgt>
<wgt id='1635'> +7.1487187e+04 </wgt>
<wgt id='1636'> +7.7951418e+04 </wgt>
<wgt id='1637'> +6.8518102e+04 </wgt>
<wgt id='1638'> +6.9043206e+04 </wgt>
<wgt id='1639'> +7.3613409e+04 </wgt>
<wgt id='1640'> +6.9440834e+04 </wgt>
<wgt id='1641'> +7.3741234e+04 </wgt>
<wgt id='1642'> +7.8082908e+04 </wgt>
<wgt id='1643'> +6.7256664e+04 </wgt>
<wgt id='1644'> +6.8238635e+04 </wgt>
<wgt id='1645'> +7.5879760e+04 </wgt>
<wgt id='1646'> +7.4953756e+04 </wgt>
<wgt id='1647'> +6.9983037e+04 </wgt>
<wgt id='1648'> +7.1129552e+04 </wgt>
<wgt id='1649'> +7.1510640e+04 </wgt>
<wgt id='1650'> +7.2116859e+04 </wgt>
<wgt id='1651'> +7.1405776e+04 </wgt>
<wgt id='1652'> +7.0824834e+04 </wgt>
<wgt id='1653'> +7.1379246e+04 </wgt>
<wgt id='1654'> +7.2242270e+04 </wgt>
<wgt id='1655'> +7.2598666e+04 </wgt>
<wgt id='1656'> +8.0112254e+04 </wgt>
<wgt id='1657'> +7.8980954e+04 </wgt>
<wgt id='1658'> +7.9225079e+04 </wgt>
<wgt id='1659'> +8.1156711e+04 </wgt>
<wgt id='1660'> +7.9217549e+04 </wgt>
<wgt id='1661'> +8.0232988e+04 </wgt>
<wgt id='1662'> +7.8782692e+04 </wgt>
<wgt id='1663'> +8.0100123e+04 </wgt>
<wgt id='1664'> +7.8121246e+04 </wgt>
<wgt id='1665'> +7.9239800e+04 </wgt>
<wgt id='1666'> +7.9865666e+04 </wgt>
<wgt id='1667'> +8.0226506e+04 </wgt>
<wgt id='1668'> +7.9981473e+04 </wgt>
<wgt id='1669'> +8.1923071e+04 </wgt>
<wgt id='1670'> +7.7817485e+04 </wgt>
<wgt id='1671'> +7.9767788e+04 </wgt>
<wgt id='1672'> +8.0931585e+04 </wgt>
<wgt id='1673'> +7.9330582e+04 </wgt>
<wgt id='1674'> +8.0766950e+04 </wgt>
<wgt id='1675'> +8.0097010e+04 </wgt>
<wgt id='1676'> +7.9392532e+04 </wgt>
<wgt id='1677'> +8.2417543e+04 </wgt>
<wgt id='1678'> +7.7761648e+04 </wgt>
<wgt id='1679'> +7.7251587e+04 </wgt>
<wgt id='1680'> +8.4206818e+04 </wgt>
<wgt id='1681'> +8.0209045e+04 </wgt>
<wgt id='1682'> +7.9204538e+04 </wgt>
<wgt id='1683'> +7.7666681e+04 </wgt>
<wgt id='1684'> +8.2292000e+04 </wgt>
<wgt id='1685'> +7.8660000e+04 </wgt>
<wgt id='1686'> +8.1130478e+04 </wgt>
<wgt id='1687'> +7.9012097e+04 </wgt>
<wgt id='1688'> +8.1183781e+04 </wgt>
<wgt id='1689'> +7.9491979e+04 </wgt>
<wgt id='1690'> +8.1006532e+04 </wgt>
<wgt id='1691'> +7.7794501e+04 </wgt>
<wgt id='1692'> +8.1647631e+04 </wgt>
<wgt id='1693'> +7.5423122e+04 </wgt>
<wgt id='1694'> +8.7418911e+04 </wgt>
<wgt id='1695'> +7.9567393e+04 </wgt>
<wgt id='1696'> +7.9759161e+04 </wgt>
<wgt id='1697'> +7.9727917e+04 </wgt>
<wgt id='1698'> +8.0488262e+04 </wgt>
<wgt id='1699'> +8.0508733e+04 </wgt>
<wgt id='1700'> +7.8819508e+04 </wgt>
<wgt id='1701'> +8.4873432e+04 </wgt>
<wgt id='1702'> +7.6816185e+04 </wgt>
<wgt id='1703'> +8.2176819e+04 </wgt>
<wgt id='1704'> +7.8478392e+04 </wgt>
<wgt id='1705'> +7.6571071e+04 </wgt>
<wgt id='1706'> +8.3882330e+04 </wgt>
<wgt id='1707'> +7.8390703e+04 </wgt>
<wgt id='1708'> +8.1376011e+04 </wgt>
<wgt id='1709'> +8.2915040e+04 </wgt>
<wgt id='1710'> +7.7645201e+04 </wgt>
<wgt id='1711'> +8.0436934e+04 </wgt>
<wgt id='1712'> +7.8864482e+04 </wgt>
<wgt id='1713'> +7.9718374e+04 </wgt>
<wgt id='1714'> +8.0079909e+04 </wgt>
<wgt id='1715'> +7.4255852e+04 </wgt>
<wgt id='1716'> +7.4992226e+04 </wgt>
<wgt id='1717'> +7.7277957e+04 </wgt>
<wgt id='1718'> +7.6649360e+04 </wgt>
<wgt id='1719'> +7.8087274e+04 </wgt>
<wgt id='1720'> +7.7281347e+04 </wgt>
<wgt id='1721'> +7.7274336e+04 </wgt>
<wgt id='1722'> +7.7771687e+04 </wgt>
<wgt id='1723'> +7.6465722e+04 </wgt>
<wgt id='1724'> +7.8126662e+04 </wgt>
<wgt id='1725'> +7.6591070e+04 </wgt>
<wgt id='1726'> +7.7662009e+04 </wgt>
<wgt id='1727'> +7.6882692e+04 </wgt>
<wgt id='1728'> +7.7969481e+04 </wgt>
<wgt id='1729'> +7.6581690e+04 </wgt>
<wgt id='1730'> +7.6317991e+04 </wgt>
<wgt id='1731'> +7.7955563e+04 </wgt>
<wgt id='1732'> +7.6948556e+04 </wgt>
<wgt id='1733'> +7.6948556e+04 </wgt>
<wgt id='1734'> +7.7822608e+04 </wgt>
<wgt id='1735'> +7.6908612e+04 </wgt>
<wgt id='1736'> +7.7421486e+04 </wgt>
<wgt id='1737'> +7.7068418e+04 </wgt>
<wgt id='1738'> +7.5758986e+04 </wgt>
<wgt id='1739'> +7.9863398e+04 </wgt>
<wgt id='1740'> +7.7480140e+04 </wgt>
<wgt id='1741'> +7.6805382e+04 </wgt>
<wgt id='1742'> +7.7692731e+04 </wgt>
<wgt id='1743'> +7.6842034e+04 </wgt>
<wgt id='1744'> +7.7285929e+04 </wgt>
<wgt id='1745'> +7.7264381e+04 </wgt>
<wgt id='1746'> +7.4835646e+04 </wgt>
<wgt id='1747'> +7.8734570e+04 </wgt>
<wgt id='1748'> +7.8034806e+04 </wgt>
<wgt id='1749'> +7.5057211e+04 </wgt>
<wgt id='1750'> +7.6925998e+04 </wgt>
<wgt id='1751'> +7.7656852e+04 </wgt>
<wgt id='1752'> +7.7642879e+04 </wgt>
<wgt id='1753'> +7.6783983e+04 </wgt>
<wgt id='1754'> +7.7020292e+04 </wgt>
<wgt id='1755'> +7.7425685e+04 </wgt>
<wgt id='1756'> +7.6588698e+04 </wgt>
<wgt id='1757'> +7.9092642e+04 </wgt>
<wgt id='1758'> +7.6703973e+04 </wgt>
<wgt id='1759'> +7.7755492e+04 </wgt>
<wgt id='1760'> +7.6834484e+04 </wgt>
<wgt id='1761'> +7.7761692e+04 </wgt>
<wgt id='1762'> +7.6528292e+04 </wgt>
<wgt id='1763'> +7.8977285e+04 </wgt>
<wgt id='1764'> +7.7243542e+04 </wgt>
<wgt id='1765'> +7.7582687e+04 </wgt>
<wgt id='1766'> +7.7734309e+04 </wgt>
<wgt id='1767'> +7.6700032e+04 </wgt>
<wgt id='1768'> +7.6902478e+04 </wgt>
<wgt id='1769'> +7.7629823e+04 </wgt>
<wgt id='1770'> +7.7632167e+04 </wgt>
<wgt id='1771'> +7.6920812e+04 </wgt>
<wgt id='1772'> +7.6636332e+04 </wgt>
<wgt id='1773'> +7.8514038e+04 </wgt>
<wgt id='1774'> +7.7939703e+04 </wgt>
<wgt id='1775'> +7.6779213e+04 </wgt>
<wgt id='1776'> +7.7786058e+04 </wgt>
<wgt id='1777'> +7.7065317e+04 </wgt>
<wgt id='1778'> +7.6246980e+04 </wgt>
<wgt id='1779'> +7.7389365e+04 </wgt>
<wgt id='1780'> +7.6053543e+04 </wgt>
<wgt id='1781'> +7.7961306e+04 </wgt>
<wgt id='1782'> +7.7277957e+04 </wgt>
<wgt id='1783'> +7.7365013e+04 </wgt>
<wgt id='1784'> +7.4797744e+04 </wgt>
<wgt id='1785'> +7.3882408e+04 </wgt>
<wgt id='1786'> +7.7405868e+04 </wgt>
<wgt id='1787'> +7.4807075e+04 </wgt>
<wgt id='1788'> +7.3472628e+04 </wgt>
<wgt id='1789'> +7.4670746e+04 </wgt>
<wgt id='1790'> +7.4044855e+04 </wgt>
<wgt id='1791'> +7.4362874e+04 </wgt>
<wgt id='1792'> +7.5972947e+04 </wgt>
<wgt id='1793'> +7.4405110e+04 </wgt>
<wgt id='1794'> +7.5640645e+04 </wgt>
<wgt id='1795'> +7.6499618e+04 </wgt>
<wgt id='1796'> +7.5034740e+04 </wgt>
<wgt id='1797'> +7.8408616e+04 </wgt>
<wgt id='1798'> +7.4506765e+04 </wgt>
<wgt id='1799'> +7.4749214e+04 </wgt>
<wgt id='1800'> +7.4844092e+04 </wgt>
<wgt id='1801'> +7.4179937e+04 </wgt>
<wgt id='1802'> +7.5065902e+04 </wgt>
<wgt id='1803'> +7.4484279e+04 </wgt>
<wgt id='1804'> +7.4787368e+04 </wgt>
<wgt id='1805'> +7.4071665e+04 </wgt>
<wgt id='1806'> +7.4539329e+04 </wgt>
<wgt id='1807'> +7.4527366e+04 </wgt>
<wgt id='1808'> +7.4653118e+04 </wgt>
<wgt id='1809'> +7.4559870e+04 </wgt>
<wgt id='1810'> +7.4454081e+04 </wgt>
<wgt id='1811'> +7.4815365e+04 </wgt>
<wgt id='1812'> +7.4769044e+04 </wgt>
<wgt id='1813'> +7.4396468e+04 </wgt>
<wgt id='1814'> +7.4245953e+04 </wgt>
<wgt id='1815'> +7.4872339e+04 </wgt>
<wgt id='1816'> +7.4369757e+04 </wgt>
<wgt id='1817'> +7.4277086e+04 </wgt>
<wgt id='1818'> +7.4988550e+04 </wgt>
<wgt id='1819'> +7.4618520e+04 </wgt>
<wgt id='1820'> +7.4404019e+04 </wgt>
<wgt id='1821'> +7.5563434e+04 </wgt>
<wgt id='1822'> +7.4592768e+04 </wgt>
<wgt id='1823'> +7.3550315e+04 </wgt>
<wgt id='1824'> +7.4809632e+04 </wgt>
<wgt id='1825'> +7.4908659e+04 </wgt>
<wgt id='1826'> +7.5219131e+04 </wgt>
<wgt id='1827'> +7.8560395e+04 </wgt>
<wgt id='1828'> +7.8785747e+04 </wgt>
<wgt id='1829'> +7.8377704e+04 </wgt>
<wgt id='1830'> +7.8482347e+04 </wgt>
<wgt id='1831'> +7.8679535e+04 </wgt>
<wgt id='1832'> +7.8680896e+04 </wgt>
<wgt id='1833'> +7.8481695e+04 </wgt>
<wgt id='1834'> +7.8005907e+04 </wgt>
<wgt id='1835'> +7.9138012e+04 </wgt>
<wgt id='1836'> +7.8987882e+04 </wgt>
<wgt id='1837'> +7.8167339e+04 </wgt>
<wgt id='1838'> +7.8635182e+04 </wgt>
<wgt id='1839'> +7.8526838e+04 </wgt>
<wgt id='1840'> +7.8425750e+04 </wgt>
<wgt id='1841'> +7.8741861e+04 </wgt>
<wgt id='1842'> +7.8571724e+04 </wgt>
<wgt id='1843'> +7.8719998e+04 </wgt>
<wgt id='1844'> +7.8340586e+04 </wgt>
<wgt id='1845'> +7.8804841e+04 </wgt>
<wgt id='1846'> +7.8782954e+04 </wgt>
<wgt id='1847'> +7.8373308e+04 </wgt>
<wgt id='1848'> +7.7462447e+04 </wgt>
<wgt id='1849'> +7.9594933e+04 </wgt>
<wgt id='1850'> +7.7881910e+04 </wgt>
<wgt id='1851'> +7.9278593e+04 </wgt>
<wgt id='1852'> +7.8415724e+04 </wgt>
<wgt id='1853'> +7.8487772e+04 </wgt>
<wgt id='1854'> +7.8136130e+04 </wgt>
<wgt id='1855'> +7.8842020e+04 </wgt>
<wgt id='1856'> +7.8760020e+04 </wgt>
<wgt id='1857'> +7.8750771e+04 </wgt>
<wgt id='1858'> +7.8657686e+04 </wgt>
<wgt id='1859'> +7.8919445e+04 </wgt>
<wgt id='1860'> +7.8766948e+04 </wgt>
<wgt id='1861'> +7.9225192e+04 </wgt>
<wgt id='1862'> +7.8889061e+04 </wgt>
<wgt id='1863'> +7.8428779e+04 </wgt>
<wgt id='1864'> +7.8492929e+04 </wgt>
<wgt id='1865'> +7.8656193e+04 </wgt>
<wgt id='1866'> +7.9106521e+04 </wgt>
<wgt id='1867'> +7.8700690e+04 </wgt>
<wgt id='1868'> +7.9745438e+04 </wgt>
<wgt id='1869'> +7.9099532e+04 </wgt>
<wgt id='1870'> +7.8997060e+04 </wgt>
<wgt id='1871'> +7.8909742e+04 </wgt>
<wgt id='1872'> +7.8870072e+04 </wgt>
<wgt id='1873'> +7.8754773e+04 </wgt>
<wgt id='1874'> +7.8482770e+04 </wgt>
<wgt id='1875'> +7.8668120e+04 </wgt>
<wgt id='1876'> +7.8707575e+04 </wgt>
<wgt id='1877'> +7.9490488e+04 </wgt>
<wgt id='1878'> +7.8753827e+04 </wgt>
<wgt id='1879'> +7.8703010e+04 </wgt>
<wgt id='1880'> +7.9112472e+04 </wgt>
<wgt id='1881'> +7.9200698e+04 </wgt>
<wgt id='1882'> +7.8778352e+04 </wgt>
<wgt id='1883'> +7.8361919e+04 </wgt>
<wgt id='1884'> +7.9496795e+04 </wgt>
<wgt id='1885'> +7.8033401e+04 </wgt>
<wgt id='1886'> +3.3563699e+04 </wgt>
<wgt id='1887'> +4.7773567e+04 </wgt>
<wgt id='1888'> +6.2323032e+04 </wgt>
<wgt id='1889'> +6.6819127e+04 </wgt>
</rwgt>
</event>
<event npLO=" -1 " npNLO=" 0 ">
 5      1 +7.4519530e+04 3.81990660e+01 7.55820760e-03 1.17852990e-01
       -4 -1    0    0    0  501 +0.0000000000e+00 +0.0000000000e+00 +2.2997094278e+02 2.2997094278e+02 0.0000000000e+00 0.0000e+00 1.0000e+00
        3 -1    0    0  501    0 +0.0000000000e+00 +0.0000000000e+00 -6.9512708415e+00 6.9512708415e+00 0.0000000000e+00 0.0000e+00 -1.0000e+00
      -24  2    1    2    0    0 +0.0000000000e+00 +0.0000000000e+00 +2.2301967193e+02 2.3692221362e+02 7.9964749957e+01 0.0000e+00 0.0000e+00
       13  1    3    3    0    0 +2.7160849632e+01 +2.6859949397e+01 +1.4649406805e+02 1.5139247210e+02 0.0000000000e+00 0.0000e+00 -1.0000e+00
      -14  1    3    3    0    0 -2.7160849632e+01 -2.6859949397e+01 +7.6525603882e+01 8.5529741516e+01 0.0000000000e+00 0.0000e+00 1.0000e+00
#aMCatNLO 1  0  0  2  1 0.12625839E+03 0.00000000E+00 -9  5  0 0.00000000E+00 0.00000000E+00 0.00000000E+00 0.00000000E+00 0.00000000E+00
<rwgt>
<wgt id='1001'> +7.4519530e+04 </wgt>
<wgt id='1002'> +7.4617740e+04 </wgt>
<wgt id='1003'> +7.4397133e+04 </wgt>
<wgt id='1004'> +8.6755461e+04 </wgt>
<wgt id='1005'> +8.6939592e+04 </wgt>
<wgt id='1006'> +8.6525987e+04 </wgt>
<wgt id='1007'> +6.1279446e+04 </wgt>
<wgt id='1008'> +6.1311708e+04 </wgt>
<wgt id='1009'> +6.1239240e+04 </wgt>
<wgt id='1010'> +7.4519530e+04 </wgt>
<wgt id='1011'> +7.5392727e+04 </wgt>
<wgt id='1012'> +7.4505356e+04 </wgt>
<wgt id='1013'> +7.4870590e+04 </wgt>
<wgt id='1014'> +7.2831417e+04 </wgt>
<wgt id='1015'> +7.6310148e+04 </wgt>
<wgt id='1016'> +7.3483329e+04 </wgt>
<wgt id='1017'> +7.4036414e+04 </wgt>
<wgt id='1018'> +7.5267789e+04 </wgt>
<wgt id='1019'> +7.3405873e+04 </wgt>
<wgt id='1020'> +7.5747876e+04 </wgt>
<wgt id='1021'> +7.4919654e+04 </wgt>
<wgt id='1022'> +7.3438269e+04 </wgt>
<wgt id='1023'> +7.3630221e+04 </wgt>
<wgt id='1024'> +7.4479220e+04 </wgt>
<wgt id='1025'> +7.2424169e+04 </wgt>
<wgt id='1026'> +7.5713306e+04 </wgt>
<wgt id='1027'> +7.4734626e+04 </wgt>
<wgt id='1028'> +7.6137939e+04 </wgt>
<wgt id='1029'> +7.4316264e+04 </wgt>
<wgt id='1030'> +7.4285460e+04 </wgt>
<wgt id='1031'> +7.4557093e+04 </wgt>
<wgt id='1032'> +7.3198770e+04 </wgt>
<wgt id='1033'> +7.5217095e+04 </wgt>
<wgt id='1034'> +7.6001058e+04 </wgt>
<wgt id='1035'> +7.4993265e+04 </wgt>
<wgt id='1036'> +7.4293326e+04 </wgt>
<wgt id='1037'> +7.3437399e+04 </wgt>
<wgt id='1038'> +7.4385214e+04 </wgt>
<wgt id='1039'> +7.3690822e+04 </wgt>
<wgt id='1040'> +7.4180646e+04 </wgt>
<wgt id='1041'> +7.3614543e+04 </wgt>
<wgt id='1042'> +7.5090227e+04 </wgt>
<wgt id='1043'> +7.4183076e+04 </wgt>
<wgt id='1044'> +7.4315065e+04 </wgt>
<wgt id='1045'> +7.4429822e+04 </wgt>
<wgt id='1046'> +7.4872229e+04 </wgt>
<wgt id='1047'> +7.4991269e+04 </wgt>
<wgt id='1048'> +7.4121965e+04 </wgt>
<wgt id='1049'> +7.4114294e+04 </wgt>
<wgt id='1050'> +7.4626588e+04 </wgt>
<wgt id='1051'> +7.4791053e+04 </wgt>
<wgt id='1052'> +7.4701289e+04 </wgt>
<wgt id='1053'> +7.4925842e+04 </wgt>
<wgt id='1054'> +7.4293306e+04 </wgt>
<wgt id='1055'> +7.4513566e+04 </wgt>
<wgt id='1056'> +7.4324642e+04 </wgt>
<wgt id='1057'> +7.4679868e+04 </wgt>
<wgt id='1058'> +7.3861264e+04 </wgt>
<wgt id='1059'> +7.4956122e+04 </wgt>
<wgt id='1060'> +7.4577595e+04 </wgt>
<wgt id='1061'> +7.4428454e+04 </wgt>
<wgt id='1062'> +7.4212528e+04 </wgt>
<wgt id='1063'> +7.4800834e+04 </wgt>
<wgt id='1064'> +7.4512524e+04 </wgt>
<wgt id='1065'> +7.4520650e+04 </wgt>
<wgt id='1066'> +7.3748786e+04 </wgt>
<wgt id='1067'> +7.4198168e+04 </wgt>
<wgt id='1068'> +7.4710005e+04 </wgt>
<wgt id='1069'> +7.4493658e+04 </wgt>
<wgt id='1070'> +7.4104171e+04 </wgt>
<wgt id='1071'> +7.4391621e+04 </wgt>
<wgt id='1072'> +7.4655346e+04 </wgt>
<wgt id='1073'> +7.4759129e+04 </wgt>
<wgt id='1074'> +7.4340031e+04 </wgt>
<wgt id='1075'> +7.4615470e+04 </wgt>
<wgt id='1076'> +7.4066222e+04 </wgt>
<wgt id='1077'> +7.4475206e+04 </wgt>
<wgt id='1078'> +7.4273601e+04 </wgt>
<wgt id='1079'> +7.4601571e+04 </wgt>
<wgt id='1080'> +7.4209047e+04 </wgt>
<wgt id='1081'> +7.4284150e+04 </wgt>
<wgt id='1082'> +7.4595718e+04 </wgt>
<wgt id='1083'> +7.4309476e+04 </wgt>
<wgt id='1084'> +7.4512520e+04 </wgt>
<wgt id='1085'> +7.4424535e+04 </wgt>
<wgt id='1086'> +7.4524943e+04 </wgt>
<wgt id='1087'> +7.4511595e+04 </wgt>
<wgt id='1088'> +7.4146022e+04 </wgt>
<wgt id='1089'> +7.4534562e+04 </wgt>
<wgt id='1090'> +7.4356767e+04 </wgt>
<wgt id='1091'> +7.4377154e+04 </wgt>
<wgt id='1092'> +7.4516748e+04 </wgt>
<wgt id='1093'> +7.4224497e+04 </wgt>
<wgt id='1094'> +7.4400423e+04 </wgt>
<wgt id='1095'> +7.4564474e+04 </wgt>
<wgt id='1096'> +7.4466270e+04 </wgt>
<wgt id='1097'> +7.4316331e+04 </wgt>
<wgt id='1098'> +7.4728243e+04 </wgt>
<wgt id='1099'> +7.4540745e+04 </wgt>
<wgt id='1100'> +7.4698171e+04 </wgt>
<wgt id='1101'> +7.4771074e+04 </wgt>
<wgt id='1102'> +7.4447651e+04 </wgt>
<wgt id='1103'> +7.4462906e+04 </wgt>
<wgt id='1104'> +7.4159126e+04 </wgt>
<wgt id='1105'> +7.4436677e+04 </wgt>
<wgt id='1106'> +7.4533433e+04 </wgt>
<wgt id='1107'> +7.4521958e+04 </wgt>
<wgt id='1108'> +7.4637635e+04 </wgt>
<wgt id='1109'> +7.4419445e+04 </wgt>
<wgt id='1110'> +7.4519528e+04 </wgt>
<wgt id='1111'> +7.0052832e+04 </wgt>
<wgt id='1112'> +7.6648246e+04 </wgt>
<wgt id='1113'> +7.4519528e+04 </wgt>
<wgt id='1114'> +5.8864310e+04 </wgt>
<wgt id='1115'> +7.7330174e+04 </wgt>
<wgt id='1116'> +7.4965586e+04 </wgt>
<wgt id='1117'> +7.6257554e+04 </wgt>
<wgt id='1118'> +7.4506092e+04 </wgt>
<wgt id='1119'> +6.6398496e+04 </wgt>
<wgt id='1120'> +7.5000846e+04 </wgt>
<wgt id='1121'> +8.1594708e+04 </wgt>
<wgt id='1122'> +7.8216814e+04 </wgt>
<wgt id='1123'> +7.2245723e+04 </wgt>
<wgt id='1124'> +7.5030694e+04 </wgt>
<wgt id='1125'> +7.9122885e+04 </wgt>
<wgt id='1126'> +7.9461796e+04 </wgt>
<wgt id='1127'> +7.4468268e+04 </wgt>
<wgt id='1128'> +7.6437133e+04 </wgt>
<wgt id='1129'> +7.6668863e+04 </wgt>
<wgt id='1130'> +6.1626389e+04 </wgt>
<wgt id='1131'> +8.0460370e+04 </wgt>
<wgt id='1132'> +7.3506601e+04 </wgt>
<wgt id='1133'> +8.1603719e+04 </wgt>
<wgt id='1134'> +7.4020218e+04 </wgt>
<wgt id='1135'> +6.9177249e+04 </wgt>
<wgt id='1136'> +7.0451772e+04 </wgt>
<wgt id='1137'> +7.7194291e+04 </wgt>
<wgt id='1138'> +8.1467182e+04 </wgt>
<wgt id='1139'> +7.0640836e+04 </wgt>
<wgt id='1140'> +5.8065089e+04 </wgt>
<wgt id='1141'> +7.8284330e+04 </wgt>
<wgt id='1142'> +6.9212977e+04 </wgt>
<wgt id='1143'> +6.9023121e+04 </wgt>
<wgt id='1144'> +6.6285146e+04 </wgt>
<wgt id='1145'> +8.4440753e+04 </wgt>
<wgt id='1146'> +7.3101530e+04 </wgt>
<wgt id='1147'> +7.9197846e+04 </wgt>
<wgt id='1148'> +6.9262187e+04 </wgt>
<wgt id='1149'> +7.3638816e+04 </wgt>
<wgt id='1150'> +7.8671473e+04 </wgt>
<wgt id='1151'> +7.1738732e+04 </wgt>
<wgt id='1152'> +7.6087845e+04 </wgt>
<wgt id='1153'> +7.6227693e+04 </wgt>
<wgt id='1154'> +7.3028241e+04 </wgt>
<wgt id='1155'> +7.6860206e+04 </wgt>
<wgt id='1156'> +6.6388979e+04 </wgt>
<wgt id='1157'> +6.5147921e+04 </wgt>
<wgt id='1158'> +8.0302930e+04 </wgt>
<wgt id='1159'> +6.8483133e+04 </wgt>
<wgt id='1160'> +7.6455953e+04 </wgt>
<wgt id='1161'> +8.0241885e+04 </wgt>
<wgt id='1162'> +7.0804517e+04 </wgt>
<wgt id='1163'> +6.9791384e+04 </wgt>
<wgt id='1164'> +7.5103609e+04 </wgt>
<wgt id='1165'> +7.7762003e+04 </wgt>
<wgt id='1166'> +7.2290099e+04 </wgt>
<wgt id='1167'> +6.8129904e+04 </wgt>
<wgt id='1168'> +7.2451509e+04 </wgt>
<wgt id='1169'> +7.4832338e+04 </wgt>
<wgt id='1170'> +6.8897996e+04 </wgt>
<wgt id='1171'> +7.7027792e+04 </wgt>
<wgt id='1172'> +7.0961702e+04 </wgt>
<wgt id='1173'> +6.6622219e+04 </wgt>
<wgt id='1174'> +7.2053915e+04 </wgt>
<wgt id='1175'> +7.8854512e+04 </wgt>
<wgt id='1176'> +6.5031370e+04 </wgt>
<wgt id='1177'> +8.3064353e+04 </wgt>
<wgt id='1178'> +7.5398857e+04 </wgt>
<wgt id='1179'> +7.8528578e+04 </wgt>
<wgt id='1180'> +7.5230266e+04 </wgt>
<wgt id='1181'> +6.9688564e+04 </wgt>
<wgt id='1182'> +7.5593261e+04 </wgt>
<wgt id='1183'> +7.6872791e+04 </wgt>
<wgt id='1184'> +7.1213011e+04 </wgt>
<wgt id='1185'> +7.5584102e+04 </wgt>
<wgt id='1186'> +8.8000519e+04 </wgt>
<wgt id='1187'> +8.5414673e+04 </wgt>
<wgt id='1188'> +7.8063663e+04 </wgt>
<wgt id='1189'> +6.1948125e+04 </wgt>
<wgt id='1190'> +8.1109300e+04 </wgt>
<wgt id='1191'> +7.5895226e+04 </wgt>
<wgt id='1192'> +7.5644427e+04 </wgt>
<wgt id='1193'> +6.9483187e+04 </wgt>
<wgt id='1194'> +7.4574971e+04 </wgt>
<wgt id='1195'> +7.6668863e+04 </wgt>
<wgt id='1196'> +7.3396878e+04 </wgt>
<wgt id='1197'> +7.9370143e+04 </wgt>
<wgt id='1198'> +7.9259807e+04 </wgt>
<wgt id='1199'> +6.9428072e+04 </wgt>
<wgt id='1200'> +8.1224859e+04 </wgt>
<wgt id='1201'> +6.7680543e+04 </wgt>
<wgt id='1202'> +8.8058711e+04 </wgt>
<wgt id='1203'> +7.7534700e+04 </wgt>
<wgt id='1204'> +7.4216758e+04 </wgt>
<wgt id='1205'> +8.3821178e+04 </wgt>
<wgt id='1206'> +7.7116774e+04 </wgt>
<wgt id='1207'> +7.3807380e+04 </wgt>
<wgt id='1208'> +8.2526646e+04 </wgt>
<wgt id='1209'> +7.5705921e+04 </wgt>
<wgt id='1210'> +6.4696083e+04 </wgt>
<wgt id='1211'> +7.2631928e+04 </wgt>
<wgt id='1212'> +8.2796693e+04 </wgt>
<wgt id='1213'> +7.5616921e+04 </wgt>
<wgt id='1214'> +7.3818757e+04 </wgt>
<wgt id='1215'> +5.4794354e+04 </wgt>
<wgt id='1216'> +5.8773535e+04 </wgt>
<wgt id='1217'> +6.2617734e+04 </wgt>
<wgt id='1218'> +6.6095336e+04 </wgt>
<wgt id='1219'> +7.1398756e+04 </wgt>
<wgt id='1220'> +7.5248385e+04 </wgt>
<wgt id='1221'> +8.1190627e+04 </wgt>
<wgt id='1222'> +8.5582417e+04 </wgt>
<wgt id='1223'> +6.8779368e+04 </wgt>
<wgt id='1224'> +6.8966086e+04 </wgt>
<wgt id='1225'> +6.8530297e+04 </wgt>
<wgt id='1226'> +6.8844045e+04 </wgt>
<wgt id='1227'> +6.6298268e+04 </wgt>
<wgt id='1228'> +6.8417309e+04 </wgt>
<wgt id='1229'> +6.9117751e+04 </wgt>
<wgt id='1230'> +6.8145837e+04 </wgt>
<wgt id='1231'> +6.9258676e+04 </wgt>
<wgt id='1232'> +6.7928949e+04 </wgt>
<wgt id='1233'> +7.0905954e+04 </wgt>
<wgt id='1234'> +6.9104964e+04 </wgt>
<wgt id='1235'> +6.8363926e+04 </wgt>
<wgt id='1236'> +6.8499274e+04 </wgt>
<wgt id='1237'> +6.7609060e+04 </wgt>
<wgt id='1238'> +6.9974944e+04 </wgt>
<wgt id='1239'> +6.7658312e+04 </wgt>
<wgt id='1240'> +6.9597966e+04 </wgt>
<wgt id='1241'> +6.8773191e+04 </wgt>
<wgt id='1242'> +6.8694790e+04 </wgt>
<wgt id='1243'> +6.9151149e+04 </wgt>
<wgt id='1244'> +6.7454807e+04 </wgt>
<wgt id='1245'> +6.8741976e+04 </wgt>
<wgt id='1246'> +6.8434914e+04 </wgt>
<wgt id='1247'> +6.7903275e+04 </wgt>
<wgt id='1248'> +6.9073427e+04 </wgt>
<wgt id='1249'> +6.9022782e+04 </wgt>
<wgt id='1250'> +6.8960068e+04 </wgt>
<wgt id='1251'> +6.8502684e+04 </wgt>
<wgt id='1252'> +6.7992263e+04 </wgt>
<wgt id='1253'> +6.8798051e+04 </wgt>
<wgt id='1254'> +6.9100513e+04 </wgt>
<wgt id='1255'> +6.9062130e+04 </wgt>
<wgt id='1256'> +6.8950126e+04 </wgt>
<wgt id='1257'> +6.8972898e+04 </wgt>
<wgt id='1258'> +6.9024368e+04 </wgt>
<wgt id='1259'> +6.9182898e+04 </wgt>
<wgt id='1260'> +6.9187752e+04 </wgt>
<wgt id='1261'> +6.9232595e+04 </wgt>
<wgt id='1262'> +6.9037298e+04 </wgt>
<wgt id='1263'> +6.8850777e+04 </wgt>
<wgt id='1264'> +6.9584608e+04 </wgt>
<wgt id='1265'> +6.9070456e+04 </wgt>
<wgt id='1266'> +6.8381262e+04 </wgt>
<wgt id='1267'> +6.9216887e+04 </wgt>
<wgt id='1268'> +6.8637458e+04 </wgt>
<wgt id='1269'> +6.9027670e+04 </wgt>
<wgt id='1270'> +6.8877543e+04 </wgt>
<wgt id='1271'> +6.8464152e+04 </wgt>
<wgt id='1272'> +6.8418471e+04 </wgt>
<wgt id='1273'> +6.8590075e+04 </wgt>
<wgt id='1274'> +6.8463848e+04 </wgt>
<wgt id='1275'> +6.9110010e+04 </wgt>
<wgt id='1276'> +6.9082454e+04 </wgt>
<wgt id='1277'> +6.8879160e+04 </wgt>
<wgt id='1278'> +6.8852500e+04 </wgt>
<wgt id='1279'> +6.8287157e+04 </wgt>
<wgt id='1280'> +6.9246730e+04 </wgt>
<wgt id='1281'> +6.9021386e+04 </wgt>
<wgt id='1282'> +6.8631651e+04 </wgt>
<wgt id='1283'> +6.8450482e+04 </wgt>
<wgt id='1284'> +6.8474508e+04 </wgt>
<wgt id='1285'> +6.8354659e+04 </wgt>
<wgt id='1286'> +6.8152071e+04 </wgt>
<wgt id='1287'> +6.8778519e+04 </wgt>
<wgt id='1288'> +6.8725781e+04 </wgt>
<wgt id='1289'> +6.8452479e+04 </wgt>
<wgt id='1290'> +6.9301513e+04 </wgt>
<wgt id='1291'> +6.8905304e+04 </wgt>
<wgt id='1292'> +6.9292133e+04 </wgt>
<wgt id='1293'> +6.9119307e+04 </wgt>
<wgt id='1294'> +6.8686562e+04 </wgt>
<wgt id='1295'> +6.8636823e+04 </wgt>
<wgt id='1296'> +6.9104303e+04 </wgt>
<wgt id='1297'> +6.8337605e+04 </wgt>
<wgt id='1298'> +6.8894119e+04 </wgt>
<wgt id='1299'> +6.8827103e+04 </wgt>
<wgt id='1300'> +6.8460645e+04 </wgt>
<wgt id='1301'> +6.8787541e+04 </wgt>
<wgt id='1302'> +6.8943337e+04 </wgt>
<wgt id='1303'> +6.8926035e+04 </wgt>
<wgt id='1304'> +6.8855062e+04 </wgt>
<wgt id='1305'> +6.8861819e+04 </wgt>
<wgt id='1306'> +6.8555064e+04 </wgt>
<wgt id='1307'> +6.8860988e+04 </wgt>
<wgt id='1308'> +6.8655411e+04 </wgt>
<wgt id='1309'> +6.9011242e+04 </wgt>
<wgt id='1310'> +6.8970637e+04 </wgt>
<wgt id='1311'> +6.8979528e+04 </wgt>
<wgt id='1312'> +6.8982550e+04 </wgt>
<wgt id='1313'> +6.8739634e+04 </wgt>
<wgt id='1314'> +6.8809001e+04 </wgt>
<wgt id='1315'> +6.8830002e+04 </wgt>
<wgt id='1316'> +6.8524131e+04 </wgt>
<wgt id='1317'> +6.8724712e+04 </wgt>
<wgt id='1318'> +6.8469739e+04 </wgt>
<wgt id='1319'> +6.8727104e+04 </wgt>
<wgt id='1320'> +6.8724653e+04 </wgt>
<wgt id='1321'> +6.9065454e+04 </wgt>
<wgt id='1322'> +6.8396387e+04 </wgt>
<wgt id='1323'> +6.8842438e+04 </wgt>
<wgt id='1324'> +6.4804805e+04 </wgt>
<wgt id='1325'> +7.2150556e+04 </wgt>
<wgt id='1326'> +8.4445907e+04 </wgt>
<wgt id='1327'> +7.9512247e+04 </wgt>
<wgt id='1328'> +7.6876399e+04 </wgt>
<wgt id='1329'> +7.5856022e+04 </wgt>
<wgt id='1330'> +7.8485084e+04 </wgt>
<wgt id='1331'> +7.4335600e+04 </wgt>
<wgt id='1332'> +7.7054935e+04 </wgt>
<wgt id='1333'> +7.6117628e+04 </wgt>
<wgt id='1334'> +7.5084887e+04 </wgt>
<wgt id='1335'> +8.0881860e+04 </wgt>
<wgt id='1336'> +7.3762964e+04 </wgt>
<wgt id='1337'> +7.8744695e+04 </wgt>
<wgt id='1338'> +7.6322333e+04 </wgt>
<wgt id='1339'> +7.7197584e+04 </wgt>
<wgt id='1340'> +7.7623795e+04 </wgt>
<wgt id='1341'> +8.2051283e+04 </wgt>
<wgt id='1342'> +7.6816137e+04 </wgt>
<wgt id='1343'> +7.6868594e+04 </wgt>
<wgt id='1344'> +7.6807237e+04 </wgt>
<wgt id='1345'> +7.6819594e+04 </wgt>
<wgt id='1346'> +8.1194674e+04 </wgt>
<wgt id='1347'> +7.6583239e+04 </wgt>
<wgt id='1348'> +7.5253796e+04 </wgt>
<wgt id='1349'> +7.5509262e+04 </wgt>
<wgt id='1350'> +7.6854588e+04 </wgt>
<wgt id='1351'> +7.5840701e+04 </wgt>
<wgt id='1352'> +8.0480265e+04 </wgt>
<wgt id='1353'> +7.5083349e+04 </wgt>
<wgt id='1354'> +7.7194671e+04 </wgt>
<wgt id='1355'> +7.7208106e+04 </wgt>
<wgt id='1356'> +7.6555004e+04 </wgt>
<wgt id='1357'> +7.6257153e+04 </wgt>
<wgt id='1358'> +7.6104816e+04 </wgt>
<wgt id='1359'> +7.7953533e+04 </wgt>
<wgt id='1360'> +7.6149780e+04 </wgt>
<wgt id='1361'> +7.5413316e+04 </wgt>
<wgt id='1362'> +7.8419525e+04 </wgt>
<wgt id='1363'> +7.4811556e+04 </wgt>
<wgt id='1364'> +7.6915698e+04 </wgt>
<wgt id='1365'> +7.5295478e+04 </wgt>
<wgt id='1366'> +7.4846851e+04 </wgt>
<wgt id='1367'> +7.6252264e+04 </wgt>
<wgt id='1368'> +7.9290484e+04 </wgt>
<wgt id='1369'> +7.7548464e+04 </wgt>
<wgt id='1370'> +7.6672819e+04 </wgt>
<wgt id='1371'> +7.5997332e+04 </wgt>
<wgt id='1372'> +7.5346153e+04 </wgt>
<wgt id='1373'> +8.1093270e+04 </wgt>
<wgt id='1374'> +7.6731097e+04 </wgt>
<wgt id='1375'> +7.6868880e+04 </wgt>
<wgt id='1376'> +7.6324583e+04 </wgt>
<wgt id='1377'> +7.8459559e+04 </wgt>
<wgt id='1378'> +7.9412918e+04 </wgt>
<wgt id='1379'> +7.7236695e+04 </wgt>
<wgt id='1380'> +7.5090325e+04 </wgt>
<wgt id='1381'> +7.2064676e+04 </wgt>
<wgt id='1382'> +7.6065353e+04 </wgt>
<wgt id='1383'> +7.6140809e+04 </wgt>
<wgt id='1384'> +7.4462858e+04 </wgt>
<wgt id='1385'> +7.6303646e+04 </wgt>
<wgt id='1386'> +7.9725698e+04 </wgt>
<wgt id='1387'> +7.8528050e+04 </wgt>
<wgt id='1388'> +7.5407378e+04 </wgt>
<wgt id='1389'> +7.6419617e+04 </wgt>
<wgt id='1390'> +7.7702522e+04 </wgt>
<wgt id='1391'> +7.8423339e+04 </wgt>
<wgt id='1392'> +7.7632041e+04 </wgt>
<wgt id='1393'> +8.1116375e+04 </wgt>
<wgt id='1394'> +7.5295478e+04 </wgt>
<wgt id='1395'> +7.7342902e+04 </wgt>
<wgt id='1396'> +7.5968438e+04 </wgt>
<wgt id='1397'> +7.6278025e+04 </wgt>
<wgt id='1398'> +7.7482353e+04 </wgt>
<wgt id='1399'> +7.7826472e+04 </wgt>
<wgt id='1400'> +7.5915436e+04 </wgt>
<wgt id='1401'> +7.7325445e+04 </wgt>
<wgt id='1402'> +7.6114276e+04 </wgt>
<wgt id='1403'> +7.7211692e+04 </wgt>
<wgt id='1404'> +7.6749914e+04 </wgt>
<wgt id='1405'> +7.5976281e+04 </wgt>
<wgt id='1406'> +7.5323584e+04 </wgt>
<wgt id='1407'> +7.6254957e+04 </wgt>
<wgt id='1408'> +7.6791277e+04 </wgt>
<wgt id='1409'> +7.5880427e+04 </wgt>
<wgt id='1410'> +7.4548993e+04 </wgt>
<wgt id='1411'> +7.7187056e+04 </wgt>
<wgt id='1412'> +7.5875255e+04 </wgt>
<wgt id='1413'> +7.7898582e+04 </wgt>
<wgt id='1414'> +7.8725274e+04 </wgt>
<wgt id='1415'> +7.6807450e+04 </wgt>
<wgt id='1416'> +7.9356705e+04 </wgt>
<wgt id='1417'> +7.6711993e+04 </wgt>
<wgt id='1418'> +7.4852825e+04 </wgt>
<wgt id='1419'> +7.6327745e+04 </wgt>
<wgt id='1420'> +7.6215341e+04 </wgt>
<wgt id='1421'> +7.6192656e+04 </wgt>
<wgt id='1422'> +7.7278852e+04 </wgt>
<wgt id='1423'> +7.9306383e+04 </wgt>
<wgt id='1424'> +7.7997085e+04 </wgt>
<wgt id='1425'> +7.4463150e+04 </wgt>
<wgt id='1426'> +7.6116787e+04 </wgt>
<wgt id='1427'> +7.9123961e+04 </wgt>
<wgt id='1428'> +7.5891288e+04 </wgt>
<wgt id='1429'> +7.5590657e+04 </wgt>
<wgt id='1430'> +7.9095444e+04 </wgt>
<wgt id='1431'> +7.7133609e+04 </wgt>
<wgt id='1432'> +7.6950115e+04 </wgt>
<wgt id='1433'> +7.7529566e+04 </wgt>
<wgt id='1434'> +7.7089026e+04 </wgt>
<wgt id='1435'> +7.7047092e+04 </wgt>
<wgt id='1436'> +7.8102465e+04 </wgt>
<wgt id='1437'> +7.7109817e+04 </wgt>
<wgt id='1438'> +7.7402903e+04 </wgt>
<wgt id='1439'> +7.7143915e+04 </wgt>
<wgt id='1440'> +7.7173517e+04 </wgt>
<wgt id='1441'> +7.7143954e+04 </wgt>
<wgt id='1442'> +7.7065520e+04 </wgt>
<wgt id='1443'> +7.7450662e+04 </wgt>
<wgt id='1444'> +7.6980679e+04 </wgt>
<wgt id='1445'> +7.6942267e+04 </wgt>
<wgt id='1446'> +7.7344671e+04 </wgt>
<wgt id='1447'> +7.6956318e+04 </wgt>
<wgt id='1448'> +7.7202813e+04 </wgt>
<wgt id='1449'> +7.7006365e+04 </wgt>
<wgt id='1450'> +7.7407723e+04 </wgt>
<wgt id='1451'> +7.7530210e+04 </wgt>
<wgt id='1452'> +7.7016808e+04 </wgt>
<wgt id='1453'> +7.7434577e+04 </wgt>
<wgt id='1454'> +7.6943952e+04 </wgt>
<wgt id='1455'> +7.7058984e+04 </wgt>
<wgt id='1456'> +7.7417520e+04 </wgt>
<wgt id='1457'> +7.7197619e+04 </wgt>
<wgt id='1458'> +7.7645726e+04 </wgt>
<wgt id='1459'> +7.7355378e+04 </wgt>
<wgt id='1460'> +7.6798118e+04 </wgt>
<wgt id='1461'> +7.7126686e+04 </wgt>
<wgt id='1462'> +7.7589428e+04 </wgt>
<wgt id='1463'> +7.7408466e+04 </wgt>
<wgt id='1464'> +7.7470436e+04 </wgt>
<wgt id='1465'> +7.6906917e+04 </wgt>
<wgt id='1466'> +7.7282016e+04 </wgt>
<wgt id='1467'> +7.7061430e+04 </wgt>
<wgt id='1468'> +7.7116089e+04 </wgt>
<wgt id='1469'> +7.7168946e+04 </wgt>
<wgt id='1470'> +7.7086356e+04 </wgt>
<wgt id='1471'> +7.6942725e+04 </wgt>
<wgt id='1472'> +7.7022490e+04 </wgt>
<wgt id='1473'> +7.6927582e+04 </wgt>
<wgt id='1474'> +7.7078462e+04 </wgt>
<wgt id='1475'> +7.7183852e+04 </wgt>
<wgt id='1476'> +7.7078568e+04 </wgt>
<wgt id='1477'> +7.6950038e+04 </wgt>
<wgt id='1478'> +7.7013303e+04 </wgt>
<wgt id='1479'> +7.6936509e+04 </wgt>
<wgt id='1480'> +7.7145069e+04 </wgt>
<wgt id='1481'> +7.7292019e+04 </wgt>
<wgt id='1482'> +7.5590657e+04 </wgt>
<wgt id='1483'> +7.9095444e+04 </wgt>
<wgt id='1484'> +8.2437951e+04 </wgt>
<wgt id='1485'> +8.1635998e+04 </wgt>
<wgt id='1486'> +8.1445568e+04 </wgt>
<wgt id='1487'> +8.3677979e+04 </wgt>
<wgt id='1488'> +8.4363726e+04 </wgt>
<wgt id='1489'> +8.2656645e+04 </wgt>
<wgt id='1490'> +8.2346274e+04 </wgt>
<wgt id='1491'> +8.3128326e+04 </wgt>
<wgt id='1492'> +8.3692197e+04 </wgt>
<wgt id='1493'> +8.2943986e+04 </wgt>
<wgt id='1494'> +8.1885482e+04 </wgt>
<wgt id='1495'> +8.4492049e+04 </wgt>
<wgt id='1496'> +8.3354869e+04 </wgt>
<wgt id='1497'> +8.5993754e+04 </wgt>
<wgt id='1498'> +8.2200869e+04 </wgt>
<wgt id='1499'> +8.2123385e+04 </wgt>
<wgt id='1500'> +8.1770252e+04 </wgt>
<wgt id='1501'> +8.3182224e+04 </wgt>
<wgt id='1502'> +8.1449220e+04 </wgt>
<wgt id='1503'> +8.3216110e+04 </wgt>
<wgt id='1504'> +8.3278804e+04 </wgt>
<wgt id='1505'> +8.1280214e+04 </wgt>
<wgt id='1506'> +8.4594102e+04 </wgt>
<wgt id='1507'> +8.2031986e+04 </wgt>
<wgt id='1508'> +8.4337777e+04 </wgt>
<wgt id='1509'> +8.1248710e+04 </wgt>
<wgt id='1510'> +8.3092622e+04 </wgt>
<wgt id='1511'> +8.1821204e+04 </wgt>
<wgt id='1512'> +8.3147980e+04 </wgt>
<wgt id='1513'> +8.2891048e+04 </wgt>
<wgt id='1514'> +8.3068119e+04 </wgt>
<wgt id='1515'> +8.3345811e+04 </wgt>
<wgt id='1516'> +8.2538716e+04 </wgt>
<wgt id='1517'> +8.1005537e+04 </wgt>
<wgt id='1518'> +8.2583050e+04 </wgt>
<wgt id='1519'> +8.2335728e+04 </wgt>
<wgt id='1520'> +8.1111549e+04 </wgt>
<wgt id='1521'> +8.2292185e+04 </wgt>
<wgt id='1522'> +8.2482672e+04 </wgt>
<wgt id='1523'> +8.3565903e+04 </wgt>
<wgt id='1524'> +8.1637119e+04 </wgt>
<wgt id='1525'> +8.0679795e+04 </wgt>
<wgt id='1526'> +7.9975683e+04 </wgt>
<wgt id='1527'> +8.2447365e+04 </wgt>
<wgt id='1528'> +8.1634175e+04 </wgt>
<wgt id='1529'> +8.2756674e+04 </wgt>
<wgt id='1530'> +8.2093792e+04 </wgt>
<wgt id='1531'> +8.3740842e+04 </wgt>
<wgt id='1532'> +8.3690543e+04 </wgt>
<wgt id='1533'> +8.2517327e+04 </wgt>
<wgt id='1534'> +8.2440353e+04 </wgt>
<wgt id='1535'> +8.3850872e+04 </wgt>
<wgt id='1536'> +8.1119022e+04 </wgt>
<wgt id='1537'> +8.1685438e+04 </wgt>
<wgt id='1538'> +8.1953970e+04 </wgt>
<wgt id='1539'> +8.2686472e+04 </wgt>
<wgt id='1540'> +8.3745793e+04 </wgt>
<wgt id='1541'> +8.2563014e+04 </wgt>
<wgt id='1542'> +8.3365736e+04 </wgt>
<wgt id='1543'> +8.1859305e+04 </wgt>
<wgt id='1544'> +8.1873617e+04 </wgt>
<wgt id='1545'> +8.0633049e+04 </wgt>
<wgt id='1546'> +8.1801873e+04 </wgt>
<wgt id='1547'> +8.1423950e+04 </wgt>
<wgt id='1548'> +8.2983245e+04 </wgt>
<wgt id='1549'> +8.3113273e+04 </wgt>
<wgt id='1550'> +8.2422862e+04 </wgt>
<wgt id='1551'> +8.2865290e+04 </wgt>
<wgt id='1552'> +8.0339946e+04 </wgt>
<wgt id='1553'> +8.3293204e+04 </wgt>
<wgt id='1554'> +8.1601650e+04 </wgt>
<wgt id='1555'> +8.3300902e+04 </wgt>
<wgt id='1556'> +8.2061647e+04 </wgt>
<wgt id='1557'> +8.2585799e+04 </wgt>
<wgt id='1558'> +8.1411473e+04 </wgt>
<wgt id='1559'> +8.1552155e+04 </wgt>
<wgt id='1560'> +8.1347555e+04 </wgt>
<wgt id='1561'> +8.1908363e+04 </wgt>
<wgt id='1562'> +8.2678133e+04 </wgt>
<wgt id='1563'> +8.3178265e+04 </wgt>
<wgt id='1564'> +8.1648991e+04 </wgt>
<wgt id='1565'> +8.3173651e+04 </wgt>
<wgt id='1566'> +8.4245334e+04 </wgt>
<wgt id='1567'> +8.2951440e+04 </wgt>
<wgt id='1568'> +8.2132964e+04 </wgt>
<wgt id='1569'> +8.2525359e+04 </wgt>
<wgt id='1570'> +8.1455097e+04 </wgt>
<wgt id='1571'> +8.2709724e+04 </wgt>
<wgt id='1572'> +8.3392496e+04 </wgt>
<wgt id='1573'> +8.2675635e+04 </wgt>
<wgt id='1574'> +8.3664697e+04 </wgt>
<wgt id='1575'> +8.0528091e+04 </wgt>
<wgt id='1576'> +8.1951367e+04 </wgt>
<wgt id='1577'> +8.2105361e+04 </wgt>
<wgt id='1578'> +8.0201476e+04 </wgt>
<wgt id='1579'> +8.3474904e+04 </wgt>
<wgt id='1580'> +8.1390616e+04 </wgt>
<wgt id='1581'> +8.1096094e+04 </wgt>
<wgt id='1582'> +8.1672883e+04 </wgt>
<wgt id='1583'> +8.0690769e+04 </wgt>
<wgt id='1584'> +8.3685212e+04 </wgt>
<wgt id='1585'> +7.3956104e+04 </wgt>
<wgt id='1586'> +6.0061678e+04 </wgt>
<wgt id='1587'> +7.4246310e+04 </wgt>
<wgt id='1588'> +7.5590657e+04 </wgt>
<wgt id='1589'> +7.6536372e+04 </wgt>
<wgt id='1590'> +7.7966250e+04 </wgt>
<wgt id='1591'> +7.9095444e+04 </wgt>
<wgt id='1592'> +8.0732260e+04 </wgt>
<wgt id='1593'> +8.3038360e+04 </wgt>
<wgt id='1594'> +8.1934950e+04 </wgt>
<wgt id='1595'> +8.3831387e+04 </wgt>
<wgt id='1596'> +8.6761298e+04 </wgt>
<wgt id='1597'> +7.8938766e+04 </wgt>
<wgt id='1598'> +8.9106522e+04 </wgt>
<wgt id='1599'> +7.9777728e+04 </wgt>
<wgt id='1600'> +8.8634946e+04 </wgt>
<wgt id='1601'> +7.8622830e+04 </wgt>
<wgt id='1602'> +8.4875097e+04 </wgt>
<wgt id='1603'> +8.1817921e+04 </wgt>
<wgt id='1604'> +8.1758195e+04 </wgt>
<wgt id='1605'> +8.5690541e+04 </wgt>
<wgt id='1606'> +8.2388485e+04 </wgt>
<wgt id='1607'> +8.3035989e+04 </wgt>
<wgt id='1608'> +8.6203656e+04 </wgt>
<wgt id='1609'> +7.9617928e+04 </wgt>
<wgt id='1610'> +8.3659045e+04 </wgt>
<wgt id='1611'> +8.2424392e+04 </wgt>
<wgt id='1612'> +8.2898404e+04 </wgt>
<wgt id='1613'> +8.2880230e+04 </wgt>
<wgt id='1614'> +8.1645476e+04 </wgt>
<wgt id='1615'> +8.5686881e+04 </wgt>
<wgt id='1616'> +8.5015790e+04 </wgt>
<wgt id='1617'> +8.0269740e+04 </wgt>
<wgt id='1618'> +8.2648485e+04 </wgt>
<wgt id='1619'> +8.4256562e+04 </wgt>
<wgt id='1620'> +7.9823434e+04 </wgt>
<wgt id='1621'> +8.7415595e+04 </wgt>
<wgt id='1622'> +8.0686189e+04 </wgt>
<wgt id='1623'> +8.4763392e+04 </wgt>
<wgt id='1624'> +8.2677145e+04 </wgt>
<wgt id='1625'> +8.2008450e+04 </wgt>
<wgt id='1626'> +8.2627315e+04 </wgt>
<wgt id='1627'> +8.2945287e+04 </wgt>
<wgt id='1628'> +7.9341392e+04 </wgt>
<wgt id='1629'> +8.7686263e+04 </wgt>
<wgt id='1630'> +7.9299958e+04 </wgt>
<wgt id='1631'> +8.7653663e+04 </wgt>
<wgt id='1632'> +7.9292108e+04 </wgt>
<wgt id='1633'> +8.9161676e+04 </wgt>
<wgt id='1634'> +8.3101905e+04 </wgt>
<wgt id='1635'> +8.3187360e+04 </wgt>
<wgt id='1636'> +8.9213694e+04 </wgt>
<wgt id='1637'> +8.0324005e+04 </wgt>
<wgt id='1638'> +8.1619490e+04 </wgt>
<wgt id='1639'> +8.4153744e+04 </wgt>
<wgt id='1640'> +7.9012740e+04 </wgt>
<wgt id='1641'> +8.6322122e+04 </wgt>
<wgt id='1642'> +8.9263665e+04 </wgt>
<wgt id='1643'> +7.9369892e+04 </wgt>
<wgt id='1644'> +8.0394339e+04 </wgt>
<wgt id='1645'> +8.7073423e+04 </wgt>
<wgt id='1646'> +8.7814210e+04 </wgt>
<wgt id='1647'> +7.9979585e+04 </wgt>
<wgt id='1648'> +8.3421032e+04 </wgt>
<wgt id='1649'> +8.2841462e+04 </wgt>
<wgt id='1650'> +8.3134799e+04 </wgt>
<wgt id='1651'> +8.2624623e+04 </wgt>
<wgt id='1652'> +7.9175508e+04 </wgt>
<wgt id='1653'> +8.1184679e+04 </wgt>
<wgt id='1654'> +8.4754713e+04 </wgt>
<wgt id='1655'> +8.6361082e+04 </wgt>
<wgt id='1656'> +8.6544625e+04 </wgt>
<wgt id='1657'> +8.6887032e+04 </wgt>
<wgt id='1658'> +8.5694175e+04 </wgt>
<wgt id='1659'> +8.6808948e+04 </wgt>
<wgt id='1660'> +8.6318802e+04 </wgt>
<wgt id='1661'> +8.6423587e+04 </wgt>
<wgt id='1662'> +8.5946843e+04 </wgt>
<wgt id='1663'> +8.6606527e+04 </wgt>
<wgt id='1664'> +8.5780580e+04 </wgt>
<wgt id='1665'> +8.5434096e+04 </wgt>
<wgt id='1666'> +8.6880181e+04 </wgt>
<wgt id='1667'> +8.8358736e+04 </wgt>
<wgt id='1668'> +8.5245950e+04 </wgt>
<wgt id='1669'> +8.7666486e+04 </wgt>
<wgt id='1670'> +8.5561362e+04 </wgt>
<wgt id='1671'> +8.5920138e+04 </wgt>
<wgt id='1672'> +8.7450671e+04 </wgt>
<wgt id='1673'> +8.5548852e+04 </wgt>
<wgt id='1674'> +8.7405000e+04 </wgt>
<wgt id='1675'> +8.4505614e+04 </wgt>
<wgt id='1676'> +8.8291586e+04 </wgt>
<wgt id='1677'> +8.8225888e+04 </wgt>
<wgt id='1678'> +8.4782293e+04 </wgt>
<wgt id='1679'> +8.5633867e+04 </wgt>
<wgt id='1680'> +8.9031794e+04 </wgt>
<wgt id='1681'> +8.5916245e+04 </wgt>
<wgt id='1682'> +8.6419884e+04 </wgt>
<wgt id='1683'> +8.4791637e+04 </wgt>
<wgt id='1684'> +8.8238016e+04 </wgt>
<wgt id='1685'> +8.5434068e+04 </wgt>
<wgt id='1686'> +8.7730104e+04 </wgt>
<wgt id='1687'> +8.4305967e+04 </wgt>
<wgt id='1688'> +8.9740998e+04 </wgt>
<wgt id='1689'> +8.4903018e+04 </wgt>
<wgt id='1690'> +8.8653448e+04 </wgt>
<wgt id='1691'> +8.4498010e+04 </wgt>
<wgt id='1692'> +8.8725501e+04 </wgt>
<wgt id='1693'> +8.0916607e+04 </wgt>
<wgt id='1694'> +9.5187917e+04 </wgt>
<wgt id='1695'> +8.7621792e+04 </wgt>
<wgt id='1696'> +8.5025013e+04 </wgt>
<wgt id='1697'> +8.4618344e+04 </wgt>
<wgt id='1698'> +8.9035701e+04 </wgt>
<wgt id='1699'> +8.8801756e+04 </wgt>
<wgt id='1700'> +8.2923357e+04 </wgt>
<wgt id='1701'> +9.0763243e+04 </wgt>
<wgt id='1702'> +8.3962005e+04 </wgt>
<wgt id='1703'> +8.8010555e+04 </wgt>
<wgt id='1704'> +8.5615744e+04 </wgt>
<wgt id='1705'> +8.4696594e+04 </wgt>
<wgt id='1706'> +8.8828993e+04 </wgt>
<wgt id='1707'> +8.4294018e+04 </wgt>
<wgt id='1708'> +8.8070449e+04 </wgt>
<wgt id='1709'> +8.9094809e+04 </wgt>
<wgt id='1710'> +8.4572450e+04 </wgt>
<wgt id='1711'> +8.7954841e+04 </wgt>
<wgt id='1712'> +8.5162619e+04 </wgt>
<wgt id='1713'> +8.5600259e+04 </wgt>
<wgt id='1714'> +8.6624364e+04 </wgt>
<wgt id='1715'> +8.7298413e+04 </wgt>
<wgt id='1716'> +8.4344480e+04 </wgt>
<wgt id='1717'> +8.5583819e+04 </wgt>
<wgt id='1718'> +8.5411230e+04 </wgt>
<wgt id='1719'> +8.5804807e+04 </wgt>
<wgt id='1720'> +8.5745996e+04 </wgt>
<wgt id='1721'> +8.5435711e+04 </wgt>
<wgt id='1722'> +8.6235501e+04 </wgt>
<wgt id='1723'> +8.4516687e+04 </wgt>
<wgt id='1724'> +8.6132235e+04 </wgt>
<wgt id='1725'> +8.5138479e+04 </wgt>
<wgt id='1726'> +8.5937713e+04 </wgt>
<wgt id='1727'> +8.5219245e+04 </wgt>
<wgt id='1728'> +8.7330271e+04 </wgt>
<wgt id='1729'> +8.3895588e+04 </wgt>
<wgt id='1730'> +8.4162095e+04 </wgt>
<wgt id='1731'> +8.6595918e+04 </wgt>
<wgt id='1732'> +8.4492737e+04 </wgt>
<wgt id='1733'> +8.4492737e+04 </wgt>
<wgt id='1734'> +8.6714748e+04 </wgt>
<wgt id='1735'> +8.4823097e+04 </wgt>
<wgt id='1736'> +8.6507311e+04 </wgt>
<wgt id='1737'> +8.4314119e+04 </wgt>
<wgt id='1738'> +8.3943896e+04 </wgt>
<wgt id='1739'> +8.8406042e+04 </wgt>
<wgt id='1740'> +8.5683433e+04 </wgt>
<wgt id='1741'> +8.5355241e+04 </wgt>
<wgt id='1742'> +8.5778046e+04 </wgt>
<wgt id='1743'> +8.5398452e+04 </wgt>
<wgt id='1744'> +8.5776934e+04 </wgt>
<wgt id='1745'> +8.5062295e+04 </wgt>
<wgt id='1746'> +8.3605261e+04 </wgt>
<wgt id='1747'> +8.6758597e+04 </wgt>
<wgt id='1748'> +8.6044010e+04 </wgt>
<wgt id='1749'> +8.4201123e+04 </wgt>
<wgt id='1750'> +8.5183518e+04 </wgt>
<wgt id='1751'> +8.6016000e+04 </wgt>
<wgt id='1752'> +8.6030646e+04 </wgt>
<wgt id='1753'> +8.4979334e+04 </wgt>
<wgt id='1754'> +8.5289740e+04 </wgt>
<wgt id='1755'> +8.5752325e+04 </wgt>
<wgt id='1756'> +8.4879887e+04 </wgt>
<wgt id='1757'> +8.7447498e+04 </wgt>
<wgt id='1758'> +8.5158308e+04 </wgt>
<wgt id='1759'> +8.5885207e+04 </wgt>
<wgt id='1760'> +8.5752842e+04 </wgt>
<wgt id='1761'> +8.5564187e+04 </wgt>
<wgt id='1762'> +8.4665938e+04 </wgt>
<wgt id='1763'> +8.7610085e+04 </wgt>
<wgt id='1764'> +8.5641385e+04 </wgt>
<wgt id='1765'> +8.5333126e+04 </wgt>
<wgt id='1766'> +8.5673553e+04 </wgt>
<wgt id='1767'> +8.5517066e+04 </wgt>
<wgt id='1768'> +8.5140763e+04 </wgt>
<wgt id='1769'> +8.5970137e+04 </wgt>
<wgt id='1770'> +8.6175199e+04 </wgt>
<wgt id='1771'> +8.5000130e+04 </wgt>
<wgt id='1772'> +8.5322065e+04 </wgt>
<wgt id='1773'> +8.6319050e+04 </wgt>
<wgt id='1774'> +8.6449388e+04 </wgt>
<wgt id='1775'> +8.4980116e+04 </wgt>
<wgt id='1776'> +8.5763800e+04 </wgt>
<wgt id='1777'> +8.5533863e+04 </wgt>
<wgt id='1778'> +8.5130488e+04 </wgt>
<wgt id='1779'> +8.5809175e+04 </wgt>
<wgt id='1780'> +8.3903212e+04 </wgt>
<wgt id='1781'> +8.6171258e+04 </wgt>
<wgt id='1782'> +8.5583819e+04 </wgt>
<wgt id='1783'> +8.5628598e+04 </wgt>
<wgt id='1784'> +8.1833343e+04 </wgt>
<wgt id='1785'> +8.0396151e+04 </wgt>
<wgt id='1786'> +8.6001441e+04 </wgt>
<wgt id='1787'> +8.1680359e+04 </wgt>
<wgt id='1788'> +8.2856485e+04 </wgt>
<wgt id='1789'> +8.1482047e+04 </wgt>
<wgt id='1790'> +8.0636962e+04 </wgt>
<wgt id='1791'> +8.1021530e+04 </wgt>
<wgt id='1792'> +8.2446143e+04 </wgt>
<wgt id='1793'> +8.0956659e+04 </wgt>
<wgt id='1794'> +8.2222784e+04 </wgt>
<wgt id='1795'> +8.3259071e+04 </wgt>
<wgt id='1796'> +8.1960434e+04 </wgt>
<wgt id='1797'> +8.5600115e+04 </wgt>
<wgt id='1798'> +8.1158274e+04 </wgt>
<wgt id='1799'> +8.1428561e+04 </wgt>
<wgt id='1800'> +8.1722606e+04 </wgt>
<wgt id='1801'> +8.0121587e+04 </wgt>
<wgt id='1802'> +8.0652390e+04 </wgt>
<wgt id='1803'> +8.1649658e+04 </wgt>
<wgt id='1804'> +8.1589586e+04 </wgt>
<wgt id='1805'> +8.2034377e+04 </wgt>
<wgt id='1806'> +8.1246035e+04 </wgt>
<wgt id='1807'> +8.1485196e+04 </wgt>
<wgt id='1808'> +8.1689782e+04 </wgt>
<wgt id='1809'> +8.1668720e+04 </wgt>
<wgt id='1810'> +8.1592622e+04 </wgt>
<wgt id='1811'> +8.1780117e+04 </wgt>
<wgt id='1812'> +8.1425319e+04 </wgt>
<wgt id='1813'> +8.1208569e+04 </wgt>
<wgt id='1814'> +8.1144686e+04 </wgt>
<wgt id='1815'> +8.1889361e+04 </wgt>
<wgt id='1816'> +8.1425734e+04 </wgt>
<wgt id='1817'> +8.0839935e+04 </wgt>
<wgt id='1818'> +8.1910997e+04 </wgt>
<wgt id='1819'> +8.1628672e+04 </wgt>
<wgt id='1820'> +8.1275722e+04 </wgt>
<wgt id='1821'> +8.1639407e+04 </wgt>
<wgt id='1822'> +8.1309010e+04 </wgt>
<wgt id='1823'> +8.0687040e+04 </wgt>
<wgt id='1824'> +8.1465661e+04 </wgt>
<wgt id='1825'> +8.0361336e+04 </wgt>
<wgt id='1826'> +8.3309288e+04 </wgt>
<wgt id='1827'> +8.2445802e+04 </wgt>
<wgt id='1828'> +8.2449119e+04 </wgt>
<wgt id='1829'> +8.2431692e+04 </wgt>
<wgt id='1830'> +8.2573687e+04 </wgt>
<wgt id='1831'> +8.2307093e+04 </wgt>
<wgt id='1832'> +8.2643738e+04 </wgt>
<wgt id='1833'> +8.2237559e+04 </wgt>
<wgt id='1834'> +8.2768365e+04 </wgt>
<wgt id='1835'> +8.2111421e+04 </wgt>
<wgt id='1836'> +8.2377251e+04 </wgt>
<wgt id='1837'> +8.2501749e+04 </wgt>
<wgt id='1838'> +8.2723002e+04 </wgt>
<wgt id='1839'> +8.2159402e+04 </wgt>
<wgt id='1840'> +8.2208509e+04 </wgt>
<wgt id='1841'> +8.2675610e+04 </wgt>
<wgt id='1842'> +8.2399864e+04 </wgt>
<wgt id='1843'> +8.2544902e+04 </wgt>
<wgt id='1844'> +8.2449078e+04 </wgt>
<wgt id='1845'> +8.2413386e+04 </wgt>
<wgt id='1846'> +8.2323560e+04 </wgt>
<wgt id='1847'> +8.2553172e+04 </wgt>
<wgt id='1848'> +8.1905905e+04 </wgt>
<wgt id='1849'> +8.2829284e+04 </wgt>
<wgt id='1850'> +8.2275769e+04 </wgt>
<wgt id='1851'> +8.2577039e+04 </wgt>
<wgt id='1852'> +8.1756826e+04 </wgt>
<wgt id='1853'> +8.2845638e+04 </wgt>
<wgt id='1854'> +8.2283532e+04 </wgt>
<wgt id='1855'> +8.2725211e+04 </wgt>
<wgt id='1856'> +8.9161577e+04 </wgt>
<wgt id='1857'> +8.9137049e+04 </wgt>
<wgt id='1858'> +8.9174774e+04 </wgt>
<wgt id='1859'> +8.9100947e+04 </wgt>
<wgt id='1860'> +8.9164375e+04 </wgt>
<wgt id='1861'> +8.9336030e+04 </wgt>
<wgt id='1862'> +8.9540291e+04 </wgt>
<wgt id='1863'> +8.8657265e+04 </wgt>
<wgt id='1864'> +8.9433930e+04 </wgt>
<wgt id='1865'> +8.9518198e+04 </wgt>
<wgt id='1866'> +8.9361122e+04 </wgt>
<wgt id='1867'> +8.9267865e+04 </wgt>
<wgt id='1868'> +8.9906487e+04 </wgt>
<wgt id='1869'> +8.8805096e+04 </wgt>
<wgt id='1870'> +8.9791443e+04 </wgt>
<wgt id='1871'> +8.9053927e+04 </wgt>
<wgt id='1872'> +8.9541430e+04 </wgt>
<wgt id='1873'> +8.9200523e+04 </wgt>
<wgt id='1874'> +8.9199593e+04 </wgt>
<wgt id='1875'> +8.9096352e+04 </wgt>
<wgt id='1876'> +8.8922003e+04 </wgt>
<wgt id='1877'> +9.0156986e+04 </wgt>
<wgt id='1878'> +8.8725170e+04 </wgt>
<wgt id='1879'> +8.9397745e+04 </wgt>
<wgt id='1880'> +8.9417882e+04 </wgt>
<wgt id='1881'> +8.9907810e+04 </wgt>
<wgt id='1882'> +8.9201268e+04 </wgt>
<wgt id='1883'> +8.8897245e+04 </wgt>
<wgt id='1884'> +8.9501046e+04 </wgt>
<wgt id='1885'> +8.8181648e+04 </wgt>
<wgt id='1886'> +2.5610521e+04 </wgt>
<wgt id='1887'> +4.3249935e+04 </wgt>
<wgt id='1888'> +6.0676805e+04 </wgt>
<wgt id='1889'> +6.9108233e+04 </wgt>
</rwgt>
</event>
<event npLO=" -1 " npNLO=" 0 ">
 5      1 +7.4519530e+04 2.89115080e+01 7.55820760e-03 1.21284330e-01
       -2 -1    0    0    0  501 +0.0000000000e+00 +0.0000000000e+00 +7.2284585569e+02 7.2284585569e+02 0.0000000000e+00 0.0000e+00 1.0000e+00
        1 -1    0    0  501    0 +0.0000000000e+00 +0.0000000000e+00 -1.9951470596e+00 1.9951470596e+00 0.0000000000e+00 0.0000e+00 -1.0000e+00
      -24  2    1    2    0    0 +0.0000000000e+00 +0.0000000000e+00 +7.2085070863e+02 7.2484100275e+02 7.5952189791e+01 0.0000e+00 0.0000e+00
       11  1    3    3    0    0 -2.8833993272e+01 +2.4145639746e+01 +4.1071881022e+02 4.1243708873e+02 0.0000000000e+00 0.0000e+00 -1.0000e+00
      -12  1    3    3    0    0 +2.8833993272e+01 -2.4145639746e+01 +3.1013189841e+02 3.1240391402e+02 0.0000000000e+00 0.0000e+00 1.0000e+00
#aMCatNLO 1  0  0  1  2 0.15872352E+02 0.00000000E+00 -9  5  0 0.00000000E+00 0.00000000E+00 0.00000000E+00 0.00000000E+00 0.00000000E+00
<rwgt>
<wgt id='1001'> +7.4519530e+04 </wgt>
<wgt id='1002'> +7.3905863e+04 </wgt>
<wgt id='1003'> +7.5285298e+04 </wgt>
<wgt id='1004'> +8.0475985e+04 </wgt>
<wgt id='1005'> +7.9922737e+04 </wgt>
<wgt id='1006'> +8.1166256e+04 </wgt>
<wgt id='1007'> +6.7539675e+04 </wgt>
<wgt id='1008'> +6.6886402e+04 </wgt>
<wgt id='1009'> +6.8354924e+04 </wgt>
<wgt id='1010'> +7.4519530e+04 </wgt>
<wgt id='1011'> +7.4400087e+04 </wgt>
<wgt id='1012'> +7.4733981e+04 </wgt>
<wgt id='1013'> +7.4008576e+04 </wgt>
<wgt id='1014'> +7.5024914e+04 </wgt>
<wgt id='1015'> +7.3011159e+04 </wgt>
<wgt id='1016'> +7.4639214e+04 </wgt>
<wgt id='1017'> +7.4078330e+04 </wgt>
<wgt id='1018'> +7.3787944e+04 </wgt>
<wgt id='1019'> +7.4561449e+04 </wgt>
<wgt id='1020'> +7.3944655e+04 </wgt>
<wgt id='1021'> +7.5005472e+04 </wgt>
<wgt id='1022'> +7.4601774e+04 </wgt>
<wgt id='1023'> +7.5472462e+04 </wgt>
<wgt id='1024'> +7.3789695e+04 </wgt>
<wgt id='1025'> +7.5753770e+04 </wgt>
<wgt id='1026'> +7.4471008e+04 </wgt>
<wgt id='1027'> +7.4502273e+04 </wgt>
<wgt id='1028'> +7.4090172e+04 </wgt>
<wgt id='1029'> +7.4782660e+04 </wgt>
<wgt id='1030'> +7.5364086e+04 </wgt>
<wgt id='1031'> +7.4181040e+04 </wgt>
<wgt id='1032'> +7.4513066e+04 </wgt>
<wgt id='1033'> +7.4644848e+04 </wgt>
<wgt id='1034'> +7.4072518e+04 </wgt>
<wgt id='1035'> +7.4602492e+04 </wgt>
<wgt id='1036'> +7.4434006e+04 </wgt>
<wgt id='1037'> +7.5421280e+04 </wgt>
<wgt id='1038'> +7.4325285e+04 </wgt>
<wgt id='1039'> +7.4933526e+04 </wgt>
<wgt id='1040'> +7.4694152e+04 </wgt>
<wgt id='1041'> +7.4908357e+04 </wgt>
<wgt id='1042'> +7.4535187e+04 </wgt>
<wgt id='1043'> +7.4184540e+04 </wgt>
<wgt id='1044'> +7.4723982e+04 </wgt>
<wgt id='1045'> +7.4207483e+04 </wgt>
<wgt id='1046'> +7.4739508e+04 </wgt>
<wgt id='1047'> +7.4531358e+04 </wgt>
<wgt id='1048'> +7.4390316e+04 </wgt>
<wgt id='1049'> +7.4296559e+04 </wgt>
<wgt id='1050'> +7.4571486e+04 </wgt>
<wgt id='1051'> +7.4353364e+04 </wgt>
<wgt id='1052'> +7.4651749e+04 </wgt>
<wgt id='1053'> +7.4642714e+04 </wgt>
<wgt id='1054'> +7.4171952e+04 </wgt>
<wgt id='1055'> +7.4657667e+04 </wgt>
<wgt id='1056'> +7.4547495e+04 </wgt>
<wgt id='1057'> +7.4295910e+04 </wgt>
<wgt id='1058'> +7.4921067e+04 </wgt>
<wgt id='1059'> +7.4032059e+04 </wgt>
<wgt id='1060'> +7.4779442e+04 </wgt>
<wgt id='1061'> +7.4693140e+04 </wgt>
<wgt id='1062'> +7.4275139e+04 </wgt>
<wgt id='1063'> +7.4376121e+04 </wgt>
<wgt id='1064'> +7.4634934e+04 </wgt>
<wgt id='1065'> +7.4936148e+04 </wgt>
<wgt id='1066'> +7.4639805e+04 </wgt>
<wgt id='1067'> +7.4558183e+04 </wgt>
<wgt id='1068'> +7.4809530e+04 </wgt>
<wgt id='1069'> +7.4654046e+04 </wgt>
<wgt id='1070'> +7.4819429e+04 </wgt>
<wgt id='1071'> +7.4775571e+04 </wgt>
<wgt id='1072'> +7.4669242e+04 </wgt>
<wgt id='1073'> +7.4089952e+04 </wgt>
<wgt id='1074'> +7.4611737e+04 </wgt>
<wgt id='1075'> +7.4509472e+04 </wgt>
<wgt id='1076'> +7.4942767e+04 </wgt>
<wgt id='1077'> +7.4646787e+04 </wgt>
<wgt id='1078'> +7.4715428e+04 </wgt>
<wgt id='1079'> +7.4357669e+04 </wgt>
<wgt id='1080'> +7.4540506e+04 </wgt>
<wgt id='1081'> +7.4094284e+04 </wgt>
<wgt id='1082'> +7.4531530e+04 </wgt>
<wgt id='1083'> +7.4579879e+04 </wgt>
<wgt id='1084'> +7.4165065e+04 </wgt>
<wgt id='1085'> +7.4327963e+04 </wgt>
<wgt id='1086'> +7.4517225e+04 </wgt>
<wgt id='1087'> +7.4678683e+04 </wgt>
<wgt id='1088'> +7.4752844e+04 </wgt>
<wgt id='1089'> +7.4304771e+04 </wgt>
<wgt id='1090'> +7.4742581e+04 </wgt>
<wgt id='1091'> +7.4398177e+04 </wgt>
<wgt id='1092'> +7.4671213e+04 </wgt>
<wgt id='1093'> +7.4430189e+04 </wgt>
<wgt id='1094'> +7.4861095e+04 </wgt>
<wgt id='1095'> +7.4493656e+04 </wgt>
<wgt id='1096'> +7.4572555e+04 </wgt>
<wgt id='1097'> +7.4420949e+04 </wgt>
<wgt id='1098'> +7.4398340e+04 </wgt>
<wgt id='1099'> +7.4612875e+04 </wgt>
<wgt id='1100'> +7.4349404e+04 </wgt>
<wgt id='1101'> +7.4744731e+04 </wgt>
<wgt id='1102'> +7.4259969e+04 </wgt>
<wgt id='1103'> +7.4543895e+04 </wgt>
<wgt id='1104'> +7.4584211e+04 </wgt>
<wgt id='1105'> +7.4577021e+04 </wgt>
<wgt id='1106'> +7.4635671e+04 </wgt>
<wgt id='1107'> +7.4650798e+04 </wgt>
<wgt id='1108'> +7.4491998e+04 </wgt>
<wgt id='1109'> +7.4710048e+04 </wgt>
<wgt id='1110'> +7.4519537e+04 </wgt>
<wgt id='1111'> +7.4844065e+04 </wgt>
<wgt id='1112'> +7.4332171e+04 </wgt>
<wgt id='1113'> +7.4519537e+04 </wgt>
<wgt id='1114'> +8.1818959e+04 </wgt>
<wgt id='1115'> +7.7515011e+04 </wgt>
<wgt id='1116'> +7.1280654e+04 </wgt>
<wgt id='1117'> +7.8752860e+04 </wgt>
<wgt id='1118'> +7.1910656e+04 </wgt>
<wgt id='1119'> +7.3883895e+04 </wgt>
<wgt id='1120'> +7.2698457e+04 </wgt>
<wgt id='1121'> +7.2553138e+04 </wgt>
<wgt id='1122'> +7.2001063e+04 </wgt>
<wgt id='1123'> +7.6004444e+04 </wgt>
<wgt id='1124'> +7.4847081e+04 </wgt>
<wgt id='1125'> +7.3850062e+04 </wgt>
<wgt id='1126'> +7.4525610e+04 </wgt>
<wgt id='1127'> +7.4846051e+04 </wgt>
<wgt id='1128'> +7.1833331e+04 </wgt>
<wgt id='1129'> +7.0761395e+04 </wgt>
<wgt id='1130'> +7.6778739e+04 </wgt>
<wgt id='1131'> +7.4049999e+04 </wgt>
<wgt id='1132'> +7.6432767e+04 </wgt>
<wgt id='1133'> +6.7100625e+04 </wgt>
<wgt id='1134'> +7.5238687e+04 </wgt>
<wgt id='1135'> +7.9993394e+04 </wgt>
<wgt id='1136'> +7.6943068e+04 </wgt>
<wgt id='1137'> +7.1500462e+04 </wgt>
<wgt id='1138'> +7.1911554e+04 </wgt>
<wgt id='1139'> +6.9973892e+04 </wgt>
<wgt id='1140'> +8.5111719e+04 </wgt>
<wgt id='1141'> +7.4701265e+04 </wgt>
<wgt id='1142'> +7.4960063e+04 </wgt>
<wgt id='1143'> +7.8229057e+04 </wgt>
<wgt id='1144'> +7.4052113e+04 </wgt>
<wgt id='1145'> +7.4156768e+04 </wgt>
<wgt id='1146'> +7.4389948e+04 </wgt>
<wgt id='1147'> +7.6537491e+04 </wgt>
<wgt id='1148'> +7.5183286e+04 </wgt>
<wgt id='1149'> +7.2361942e+04 </wgt>
<wgt id='1150'> +7.3354434e+04 </wgt>
<wgt id='1151'> +7.2043192e+04 </wgt>
<wgt id='1152'> +7.7742328e+04 </wgt>
<wgt id='1153'> +6.9726453e+04 </wgt>
<wgt id='1154'> +7.7245680e+04 </wgt>
<wgt id='1155'> +7.5335155e+04 </wgt>
<wgt id='1156'> +8.1307880e+04 </wgt>
<wgt id='1157'> +7.6581611e+04 </wgt>
<wgt id='1158'> +7.0569616e+04 </wgt>
<wgt id='1159'> +7.4545185e+04 </wgt>
<wgt id='1160'> +7.7923673e+04 </wgt>
<wgt id='1161'> +7.0493826e+04 </wgt>
<wgt id='1162'> +7.7909616e+04 </wgt>
<wgt id='1163'> +7.3531886e+04 </wgt>
<wgt id='1164'> +7.2524034e+04 </wgt>
<wgt id='1165'> +6.9614960e+04 </wgt>
<wgt id='1166'> +7.6993716e+04 </wgt>
<wgt id='1167'> +7.8410209e+04 </wgt>
<wgt id='1168'> +7.3496124e+04 </wgt>
<wgt id='1169'> +7.8354881e+04 </wgt>
<wgt id='1170'> +7.6262012e+04 </wgt>
<wgt id='1171'> +7.7825837e+04 </wgt>
<wgt id='1172'> +7.4687887e+04 </wgt>
<wgt id='1173'> +7.1210214e+04 </wgt>
<wgt id='1174'> +7.7528855e+04 </wgt>
<wgt id='1175'> +7.4879086e+04 </wgt>
<wgt id='1176'> +7.8097828e+04 </wgt>
<wgt id='1177'> +7.1873268e+04 </wgt>
<wgt id='1178'> +7.2402922e+04 </wgt>
<wgt id='1179'> +6.9671696e+04 </wgt>
<wgt id='1180'> +7.5357053e+04 </wgt>
<wgt id='1181'> +7.7410835e+04 </wgt>
<wgt id='1182'> +7.5269127e+04 </wgt>
<wgt id='1183'> +7.8484789e+04 </wgt>
<wgt id='1184'> +7.5463969e+04 </wgt>
<wgt id='1185'> +6.8962412e+04 </wgt>
<wgt id='1186'> +6.5660660e+04 </wgt>
<wgt id='1187'> +7.0435764e+04 </wgt>
<wgt id='1188'> +7.1000013e+04 </wgt>
<wgt id='1189'> +7.7831053e+04 </wgt>
<wgt id='1190'> +7.8022937e+04 </wgt>
<wgt id='1191'> +7.2749867e+04 </wgt>
<wgt id='1192'> +7.1080338e+04 </wgt>
<wgt id='1193'> +8.0144070e+04 </wgt>
<wgt id='1194'> +7.9520156e+04 </wgt>
<wgt id='1195'> +7.0761395e+04 </wgt>
<wgt id='1196'> +6.9470249e+04 </wgt>
<wgt id='1197'> +7.5613809e+04 </wgt>
<wgt id='1198'> +7.2983968e+04 </wgt>
<wgt id='1199'> +8.0581136e+04 </wgt>
<wgt id='1200'> +7.3494345e+04 </wgt>
<wgt id='1201'> +8.2320013e+04 </wgt>
<wgt id='1202'> +6.7872837e+04 </wgt>
<wgt id='1203'> +7.3760530e+04 </wgt>
<wgt id='1204'> +7.3338941e+04 </wgt>
<wgt id='1205'> +6.4865243e+04 </wgt>
<wgt id='1206'> +7.1552740e+04 </wgt>
<wgt id='1207'> +7.5194144e+04 </wgt>
<wgt id='1208'> +7.4957469e+04 </wgt>
<wgt id='1209'> +7.6674664e+04 </wgt>
<wgt id='1210'> +7.5363906e+04 </wgt>
<wgt id='1211'> +7.6672487e+04 </wgt>
<wgt id='1212'> +7.5373819e+04 </wgt>
<wgt id='1213'> +7.3813621e+04 </wgt>
<wgt id='1214'> +7.4574889e+04 </wgt>
<wgt id='1215'> +7.5614246e+04 </wgt>
<wgt id='1216'> +7.5362541e+04 </wgt>
<wgt id='1217'> +7.4409689e+04 </wgt>
<wgt id='1218'> +7.4628729e+04 </wgt>
<wgt id='1219'> +7.4024295e+04 </wgt>
<wgt id='1220'> +7.4824191e+04 </wgt>
<wgt id='1221'> +7.4633615e+04 </wgt>
<wgt id='1222'> +7.4613223e+04 </wgt>
<wgt id='1223'> +7.7131795e+04 </wgt>
<wgt id='1224'> +7.6809224e+04 </wgt>
<wgt id='1225'> +7.7726987e+04 </wgt>
<wgt id='1226'> +7.6425578e+04 </wgt>
<wgt id='1227'> +7.7914032e+04 </wgt>
<wgt id='1228'> +7.6810597e+04 </wgt>
<wgt id='1229'> +7.6401476e+04 </wgt>
<wgt id='1230'> +7.7180133e+04 </wgt>
<wgt id='1231'> +7.7633664e+04 </wgt>
<wgt id='1232'> +7.7304878e+04 </wgt>
<wgt id='1233'> +7.6534859e+04 </wgt>
<wgt id='1234'> +7.7017681e+04 </wgt>
<wgt id='1235'> +7.7482577e+04 </wgt>
<wgt id='1236'> +7.7661756e+04 </wgt>
<wgt id='1237'> +7.7075244e+04 </wgt>
<wgt id='1238'> +7.7174959e+04 </wgt>
<wgt id='1239'> +7.7659503e+04 </wgt>
<wgt id='1240'> +7.7071388e+04 </wgt>
<wgt id='1241'> +7.7382749e+04 </wgt>
<wgt id='1242'> +7.7279103e+04 </wgt>
<wgt id='1243'> +7.7413549e+04 </wgt>
<wgt id='1244'> +7.7321443e+04 </wgt>
<wgt id='1245'> +7.7087027e+04 </wgt>
<wgt id='1246'> +7.6810454e+04 </wgt>
<wgt id='1247'> +7.7700029e+04 </wgt>
<wgt id='1248'> +7.7038951e+04 </wgt>
<wgt id='1249'> +7.7036931e+04 </wgt>
<wgt id='1250'> +7.7533369e+04 </wgt>
<wgt id='1251'> +7.7032523e+04 </wgt>
<wgt id='1252'> +7.7287097e+04 </wgt>
<wgt id='1253'> +7.7337582e+04 </wgt>
<wgt id='1254'> +7.7704391e+04 </wgt>
<wgt id='1255'> +7.6560051e+04 </wgt>
<wgt id='1256'> +7.7151589e+04 </wgt>
<wgt id='1257'> +7.7084796e+04 </wgt>
<wgt id='1258'> +7.6388757e+04 </wgt>
<wgt id='1259'> +7.6394859e+04 </wgt>
<wgt id='1260'> +7.7148741e+04 </wgt>
<wgt id='1261'> +7.6642577e+04 </wgt>
<wgt id='1262'> +7.6985243e+04 </wgt>
<wgt id='1263'> +7.7092245e+04 </wgt>
<wgt id='1264'> +7.6552054e+04 </wgt>
<wgt id='1265'> +7.6910316e+04 </wgt>
<wgt id='1266'> +7.7673864e+04 </wgt>
<wgt id='1267'> +7.6827698e+04 </wgt>
<wgt id='1268'> +7.6885309e+04 </wgt>
<wgt id='1269'> +7.6889348e+04 </wgt>
<wgt id='1270'> +7.7357188e+04 </wgt>
<wgt id='1271'> +7.7162854e+04 </wgt>
<wgt id='1272'> +7.7056357e+04 </wgt>
<wgt id='1273'> +7.7653236e+04 </wgt>
<wgt id='1274'> +7.7634756e+04 </wgt>
<wgt id='1275'> +7.7307696e+04 </wgt>
<wgt id='1276'> +7.6971315e+04 </wgt>
<wgt id='1277'> +7.7141501e+04 </wgt>
<wgt id='1278'> +7.6912869e+04 </wgt>
<wgt id='1279'> +7.6922028e+04 </wgt>
<wgt id='1280'> +7.6925627e+04 </wgt>
<wgt id='1281'> +7.6531028e+04 </wgt>
<wgt id='1282'> +7.7038703e+04 </wgt>
<wgt id='1283'> +7.7325515e+04 </wgt>
<wgt id='1284'> +7.7232912e+04 </wgt>
<wgt id='1285'> +7.7285699e+04 </wgt>
<wgt id='1286'> +7.7409833e+04 </wgt>
<wgt id='1287'> +7.7183168e+04 </wgt>
<wgt id='1288'> +7.7065763e+04 </wgt>
<wgt id='1289'> +7.7381403e+04 </wgt>
<wgt id='1290'> +7.7241093e+04 </wgt>
<wgt id='1291'> +7.7294096e+04 </wgt>
<wgt id='1292'> +7.7096241e+04 </wgt>
<wgt id='1293'> +7.6801091e+04 </wgt>
<wgt id='1294'> +7.7038908e+04 </wgt>
<wgt id='1295'> +7.7268540e+04 </wgt>
<wgt id='1296'> +7.6841576e+04 </wgt>
<wgt id='1297'> +7.7062721e+04 </wgt>
<wgt id='1298'> +7.6768323e+04 </wgt>
<wgt id='1299'> +7.7205333e+04 </wgt>
<wgt id='1300'> +7.6920523e+04 </wgt>
<wgt id='1301'> +7.7002472e+04 </wgt>
<wgt id='1302'> +7.6889268e+04 </wgt>
<wgt id='1303'> +7.6933371e+04 </wgt>
<wgt id='1304'> +7.7042041e+04 </wgt>
<wgt id='1305'> +7.7306123e+04 </wgt>
<wgt id='1306'> +7.7213492e+04 </wgt>
<wgt id='1307'> +7.6771547e+04 </wgt>
<wgt id='1308'> +7.7327663e+04 </wgt>
<wgt id='1309'> +7.7111633e+04 </wgt>
<wgt id='1310'> +7.7554784e+04 </wgt>
<wgt id='1311'> +7.7062610e+04 </wgt>
<wgt id='1312'> +7.6645554e+04 </wgt>
<wgt id='1313'> +7.6901862e+04 </wgt>
<wgt id='1314'> +7.7343165e+04 </wgt>
<wgt id='1315'> +7.7216103e+04 </wgt>
<wgt id='1316'> +7.7015138e+04 </wgt>
<wgt id='1317'> +7.7481289e+04 </wgt>
<wgt id='1318'> +7.7355530e+04 </wgt>
<wgt id='1319'> +7.7000404e+04 </wgt>
<wgt id='1320'> +7.7061580e+04 </wgt>
<wgt id='1321'> +7.7183011e+04 </wgt>
<wgt id='1322'> +7.7242475e+04 </wgt>
<wgt id='1323'> +7.6963752e+04 </wgt>
<wgt id='1324'> +7.7370413e+04 </wgt>
<wgt id='1325'> +7.7202597e+04 </wgt>
<wgt id='1326'> +7.4038928e+04 </wgt>
<wgt id='1327'> +7.3804645e+04 </wgt>
<wgt id='1328'> +7.4614110e+04 </wgt>
<wgt id='1329'> +7.5697830e+04 </wgt>
<wgt id='1330'> +7.1076954e+04 </wgt>
<wgt id='1331'> +7.3871404e+04 </wgt>
<wgt id='1332'> +7.5606442e+04 </wgt>
<wgt id='1333'> +7.5317889e+04 </wgt>
<wgt id='1334'> +7.6948052e+04 </wgt>
<wgt id='1335'> +7.4989828e+04 </wgt>
<wgt id='1336'> +7.7608845e+04 </wgt>
<wgt id='1337'> +7.2541539e+04 </wgt>
<wgt id='1338'> +7.4690797e+04 </wgt>
<wgt id='1339'> +7.4356355e+04 </wgt>
<wgt id='1340'> +7.3633681e+04 </wgt>
<wgt id='1341'> +7.6096631e+04 </wgt>
<wgt id='1342'> +7.6595282e+04 </wgt>
<wgt id='1343'> +7.7263685e+04 </wgt>
<wgt id='1344'> +7.7099021e+04 </wgt>
<wgt id='1345'> +7.2189624e+04 </wgt>
<wgt id='1346'> +7.3725815e+04 </wgt>
<wgt id='1347'> +7.3784181e+04 </wgt>
<wgt id='1348'> +7.7352377e+04 </wgt>
<wgt id='1349'> +7.6556355e+04 </wgt>
<wgt id='1350'> +7.2646846e+04 </wgt>
<wgt id='1351'> +7.7933615e+04 </wgt>
<wgt id='1352'> +7.3328576e+04 </wgt>
<wgt id='1353'> +7.6318300e+04 </wgt>
<wgt id='1354'> +7.5750698e+04 </wgt>
<wgt id='1355'> +7.5007806e+04 </wgt>
<wgt id='1356'> +7.4844270e+04 </wgt>
<wgt id='1357'> +7.3295958e+04 </wgt>
<wgt id='1358'> +7.2284289e+04 </wgt>
<wgt id='1359'> +7.5263554e+04 </wgt>
<wgt id='1360'> +7.3487265e+04 </wgt>
<wgt id='1361'> +7.4235272e+04 </wgt>
<wgt id='1362'> +7.3569857e+04 </wgt>
<wgt id='1363'> +7.9271534e+04 </wgt>
<wgt id='1364'> +7.5786779e+04 </wgt>
<wgt id='1365'> +7.6548050e+04 </wgt>
<wgt id='1366'> +7.8903157e+04 </wgt>
<wgt id='1367'> +7.0018999e+04 </wgt>
<wgt id='1368'> +6.9288882e+04 </wgt>
<wgt id='1369'> +7.9131613e+04 </wgt>
<wgt id='1370'> +7.6088854e+04 </wgt>
<wgt id='1371'> +7.4225984e+04 </wgt>
<wgt id='1372'> +7.3429327e+04 </wgt>
<wgt id='1373'> +7.3803938e+04 </wgt>
<wgt id='1374'> +7.6209151e+04 </wgt>
<wgt id='1375'> +7.2651057e+04 </wgt>
<wgt id='1376'> +7.2257002e+04 </wgt>
<wgt id='1377'> +7.3042814e+04 </wgt>
<wgt id='1378'> +7.1389014e+04 </wgt>
<wgt id='1379'> +7.7177433e+04 </wgt>
<wgt id='1380'> +7.4977587e+04 </wgt>
<wgt id='1381'> +7.5093790e+04 </wgt>
<wgt id='1382'> +7.5583847e+04 </wgt>
<wgt id='1383'> +7.5484952e+04 </wgt>
<wgt id='1384'> +7.6608011e+04 </wgt>
<wgt id='1385'> +7.4677028e+04 </wgt>
<wgt id='1386'> +7.1771134e+04 </wgt>
<wgt id='1387'> +7.6938656e+04 </wgt>
<wgt id='1388'> +7.7441325e+04 </wgt>
<wgt id='1389'> +7.4491988e+04 </wgt>
<wgt id='1390'> +7.5387951e+04 </wgt>
<wgt id='1391'> +7.2190908e+04 </wgt>
<wgt id='1392'> +7.1342463e+04 </wgt>
<wgt id='1393'> +7.8178992e+04 </wgt>
<wgt id='1394'> +7.6548050e+04 </wgt>
<wgt id='1395'> +7.3796381e+04 </wgt>
<wgt id='1396'> +7.0746151e+04 </wgt>
<wgt id='1397'> +7.7052455e+04 </wgt>
<wgt id='1398'> +7.2618223e+04 </wgt>
<wgt id='1399'> +7.2133078e+04 </wgt>
<wgt id='1400'> +7.3969896e+04 </wgt>
<wgt id='1401'> +7.2434123e+04 </wgt>
<wgt id='1402'> +7.4848656e+04 </wgt>
<wgt id='1403'> +7.2201479e+04 </wgt>
<wgt id='1404'> +7.2184895e+04 </wgt>
<wgt id='1405'> +7.5361317e+04 </wgt>
<wgt id='1406'> +7.3019182e+04 </wgt>
<wgt id='1407'> +6.9948330e+04 </wgt>
<wgt id='1408'> +7.7037791e+04 </wgt>
<wgt id='1409'> +7.5898790e+04 </wgt>
<wgt id='1410'> +7.6115103e+04 </wgt>
<wgt id='1411'> +7.1234933e+04 </wgt>
<wgt id='1412'> +7.5470723e+04 </wgt>
<wgt id='1413'> +7.6802929e+04 </wgt>
<wgt id='1414'> +7.6514075e+04 </wgt>
<wgt id='1415'> +7.8149897e+04 </wgt>
<wgt id='1416'> +7.1654510e+04 </wgt>
<wgt id='1417'> +7.7048084e+04 </wgt>
<wgt id='1418'> +7.5103856e+04 </wgt>
<wgt id='1419'> +7.4690946e+04 </wgt>
<wgt id='1420'> +7.8851463e+04 </wgt>
<wgt id='1421'> +7.6801718e+04 </wgt>
<wgt id='1422'> +7.1562412e+04 </wgt>
<wgt id='1423'> +7.2135605e+04 </wgt>
<wgt id='1424'> +7.1989549e+04 </wgt>
<wgt id='1425'> +7.4624509e+04 </wgt>
<wgt id='1426'> +7.3520858e+04 </wgt>
<wgt id='1427'> +7.2292643e+04 </wgt>
<wgt id='1428'> +7.2841252e+04 </wgt>
<wgt id='1429'> +7.5049089e+04 </wgt>
<wgt id='1430'> +7.4064693e+04 </wgt>
<wgt id='1431'> +7.4576788e+04 </wgt>
<wgt id='1432'> +7.4902163e+04 </wgt>
<wgt id='1433'> +7.4527515e+04 </wgt>
<wgt id='1434'> +7.4477836e+04 </wgt>
<wgt id='1435'> +7.4574866e+04 </wgt>
<wgt id='1436'> +7.4373187e+04 </wgt>
<wgt id='1437'> +7.5161612e+04 </wgt>
<wgt id='1438'> +7.4559500e+04 </wgt>
<wgt id='1439'> +7.5357411e+04 </wgt>
<wgt id='1440'> +7.4464195e+04 </wgt>
<wgt id='1441'> +7.4440783e+04 </wgt>
<wgt id='1442'> +7.4245520e+04 </wgt>
<wgt id='1443'> +7.4422917e+04 </wgt>
<wgt id='1444'> +7.5379563e+04 </wgt>
<wgt id='1445'> +7.4425745e+04 </wgt>
<wgt id='1446'> +7.4571880e+04 </wgt>
<wgt id='1447'> +7.4936009e+04 </wgt>
<wgt id='1448'> +7.4764075e+04 </wgt>
<wgt id='1449'> +7.4693161e+04 </wgt>
<wgt id='1450'> +7.5116271e+04 </wgt>
<wgt id='1451'> +7.4608916e+04 </wgt>
<wgt id='1452'> +7.5050050e+04 </wgt>
<wgt id='1453'> +7.4250672e+04 </wgt>
<wgt id='1454'> +7.4434428e+04 </wgt>
<wgt id='1455'> +7.4652302e+04 </wgt>
<wgt id='1456'> +7.4480950e+04 </wgt>
<wgt id='1457'> +7.5062601e+04 </wgt>
<wgt id='1458'> +7.4212677e+04 </wgt>
<wgt id='1459'> +7.4101924e+04 </wgt>
<wgt id='1460'> +7.5061635e+04 </wgt>
<wgt id='1461'> +7.4649065e+04 </wgt>
<wgt id='1462'> +7.4245653e+04 </wgt>
<wgt id='1463'> +7.4843815e+04 </wgt>
<wgt id='1464'> +7.4816962e+04 </wgt>
<wgt id='1465'> +7.4844681e+04 </wgt>
<wgt id='1466'> +7.4624058e+04 </wgt>
<wgt id='1467'> +7.4667119e+04 </wgt>
<wgt id='1468'> +7.4740030e+04 </wgt>
<wgt id='1469'> +7.4524819e+04 </wgt>
<wgt id='1470'> +7.4950636e+04 </wgt>
<wgt id='1471'> +7.4559150e+04 </wgt>
<wgt id='1472'> +7.4757999e+04 </wgt>
<wgt id='1473'> +7.4208046e+04 </wgt>
<wgt id='1474'> +7.4429114e+04 </wgt>
<wgt id='1475'> +7.4216199e+04 </wgt>
<wgt id='1476'> +7.4608987e+04 </wgt>
<wgt id='1477'> +7.4251908e+04 </wgt>
<wgt id='1478'> +7.4554343e+04 </wgt>
<wgt id='1479'> +7.4402380e+04 </wgt>
<wgt id='1480'> +7.4417677e+04 </wgt>
<wgt id='1481'> +7.4772621e+04 </wgt>
<wgt id='1482'> +7.5049089e+04 </wgt>
<wgt id='1483'> +7.4064693e+04 </wgt>
<wgt id='1484'> +7.5365689e+04 </wgt>
<wgt id='1485'> +7.2908159e+04 </wgt>
<wgt id='1486'> +7.4767690e+04 </wgt>
<wgt id='1487'> +7.6148151e+04 </wgt>
<wgt id='1488'> +7.4842200e+04 </wgt>
<wgt id='1489'> +7.2036427e+04 </wgt>
<wgt id='1490'> +7.5642158e+04 </wgt>
<wgt id='1491'> +7.5463341e+04 </wgt>
<wgt id='1492'> +7.2290341e+04 </wgt>
<wgt id='1493'> +7.9162426e+04 </wgt>
<wgt id='1494'> +7.5848255e+04 </wgt>
<wgt id='1495'> +7.4675539e+04 </wgt>
<wgt id='1496'> +7.3870067e+04 </wgt>
<wgt id='1497'> +7.6004193e+04 </wgt>
<wgt id='1498'> +7.7502738e+04 </wgt>
<wgt id='1499'> +7.7976577e+04 </wgt>
<wgt id='1500'> +7.9465771e+04 </wgt>
<wgt id='1501'> +7.6978480e+04 </wgt>
<wgt id='1502'> +7.7301345e+04 </wgt>
<wgt id='1503'> +7.3384906e+04 </wgt>
<wgt id='1504'> +7.5364180e+04 </wgt>
<wgt id='1505'> +7.8677613e+04 </wgt>
<wgt id='1506'> +7.4400245e+04 </wgt>
<wgt id='1507'> +7.3431050e+04 </wgt>
<wgt id='1508'> +7.1898007e+04 </wgt>
<wgt id='1509'> +7.2136234e+04 </wgt>
<wgt id='1510'> +6.8880769e+04 </wgt>
<wgt id='1511'> +7.6852812e+04 </wgt>
<wgt id='1512'> +7.9395883e+04 </wgt>
<wgt id='1513'> +7.8354622e+04 </wgt>
<wgt id='1514'> +7.1948902e+04 </wgt>
<wgt id='1515'> +7.2322284e+04 </wgt>
<wgt id='1516'> +7.6807874e+04 </wgt>
<wgt id='1517'> +7.5946563e+04 </wgt>
<wgt id='1518'> +7.5573362e+04 </wgt>
<wgt id='1519'> +7.5573681e+04 </wgt>
<wgt id='1520'> +7.5126347e+04 </wgt>
<wgt id='1521'> +7.6829950e+04 </wgt>
<wgt id='1522'> +7.5224518e+04 </wgt>
<wgt id='1523'> +7.5731631e+04 </wgt>
<wgt id='1524'> +7.3596165e+04 </wgt>
<wgt id='1525'> +7.7980629e+04 </wgt>
<wgt id='1526'> +7.7403435e+04 </wgt>
<wgt id='1527'> +7.5325171e+04 </wgt>
<wgt id='1528'> +7.4843069e+04 </wgt>
<wgt id='1529'> +7.2475000e+04 </wgt>
<wgt id='1530'> +7.4277012e+04 </wgt>
<wgt id='1531'> +7.4592692e+04 </wgt>
<wgt id='1532'> +7.9152041e+04 </wgt>
<wgt id='1533'> +7.6715115e+04 </wgt>
<wgt id='1534'> +7.5335833e+04 </wgt>
<wgt id='1535'> +7.2781741e+04 </wgt>
<wgt id='1536'> +7.4694596e+04 </wgt>
<wgt id='1537'> +7.5146787e+04 </wgt>
<wgt id='1538'> +7.1839060e+04 </wgt>
<wgt id='1539'> +7.3400001e+04 </wgt>
<wgt id='1540'> +7.5064930e+04 </wgt>
<wgt id='1541'> +7.8641120e+04 </wgt>
<wgt id='1542'> +7.3688095e+04 </wgt>
<wgt id='1543'> +7.3831675e+04 </wgt>
<wgt id='1544'> +7.4653593e+04 </wgt>
<wgt id='1545'> +7.8704980e+04 </wgt>
<wgt id='1546'> +7.9317263e+04 </wgt>
<wgt id='1547'> +7.6593059e+04 </wgt>
<wgt id='1548'> +7.4919057e+04 </wgt>
<wgt id='1549'> +7.3885294e+04 </wgt>
<wgt id='1550'> +7.3851376e+04 </wgt>
<wgt id='1551'> +7.6965950e+04 </wgt>
<wgt id='1552'> +7.7657807e+04 </wgt>
<wgt id='1553'> +7.4921083e+04 </wgt>
<wgt id='1554'> +7.3337215e+04 </wgt>
<wgt id='1555'> +7.2386599e+04 </wgt>
<wgt id='1556'> +7.2750722e+04 </wgt>
<wgt id='1557'> +7.2699982e+04 </wgt>
<wgt id='1558'> +7.7272129e+04 </wgt>
<wgt id='1559'> +7.5044462e+04 </wgt>
<wgt id='1560'> +7.3534234e+04 </wgt>
<wgt id='1561'> +7.4861387e+04 </wgt>
<wgt id='1562'> +7.5682545e+04 </wgt>
<wgt id='1563'> +7.3100624e+04 </wgt>
<wgt id='1564'> +7.6674765e+04 </wgt>
<wgt id='1565'> +7.5541322e+04 </wgt>
<wgt id='1566'> +7.6040582e+04 </wgt>
<wgt id='1567'> +7.8830455e+04 </wgt>
<wgt id='1568'> +7.7322377e+04 </wgt>
<wgt id='1569'> +7.4423733e+04 </wgt>
<wgt id='1570'> +7.7272271e+04 </wgt>
<wgt id='1571'> +7.4135426e+04 </wgt>
<wgt id='1572'> +7.5903931e+04 </wgt>
<wgt id='1573'> +7.6344139e+04 </wgt>
<wgt id='1574'> +7.5379307e+04 </wgt>
<wgt id='1575'> +7.5802471e+04 </wgt>
<wgt id='1576'> +7.5119364e+04 </wgt>
<wgt id='1577'> +7.5993528e+04 </wgt>
<wgt id='1578'> +8.0258587e+04 </wgt>
<wgt id='1579'> +7.9352583e+04 </wgt>
<wgt id='1580'> +7.6269964e+04 </wgt>
<wgt id='1581'> +7.4870601e+04 </wgt>
<wgt id='1582'> +7.4913748e+04 </wgt>
<wgt id='1583'> +7.4308270e+04 </wgt>
<wgt id='1584'> +7.2132826e+04 </wgt>
<wgt id='1585'> +7.7827516e+04 </wgt>
<wgt id='1586'> +7.5369403e+04 </wgt>
<wgt id='1587'> +7.5047063e+04 </wgt>
<wgt id='1588'> +7.5049089e+04 </wgt>
<wgt id='1589'> +7.4352988e+04 </wgt>
<wgt id='1590'> +7.4615243e+04 </wgt>
<wgt id='1591'> +7.4064693e+04 </wgt>
<wgt id='1592'> +7.4317152e+04 </wgt>
<wgt id='1593'> +7.3492389e+04 </wgt>
<wgt id='1594'> +7.2658087e+04 </wgt>
<wgt id='1595'> +7.1791582e+04 </wgt>
<wgt id='1596'> +7.1672704e+04 </wgt>
<wgt id='1597'> +7.5696101e+04 </wgt>
<wgt id='1598'> +7.0356552e+04 </wgt>
<wgt id='1599'> +7.6526826e+04 </wgt>
<wgt id='1600'> +7.2195166e+04 </wgt>
<wgt id='1601'> +7.4462233e+04 </wgt>
<wgt id='1602'> +7.2583554e+04 </wgt>
<wgt id='1603'> +7.4348907e+04 </wgt>
<wgt id='1604'> +7.2425129e+04 </wgt>
<wgt id='1605'> +7.5729614e+04 </wgt>
<wgt id='1606'> +7.5345007e+04 </wgt>
<wgt id='1607'> +7.0514938e+04 </wgt>
<wgt id='1608'> +7.4809200e+04 </wgt>
<wgt id='1609'> +7.2217024e+04 </wgt>
<wgt id='1610'> +7.4662660e+04 </wgt>
<wgt id='1611'> +7.1904685e+04 </wgt>
<wgt id='1612'> +7.4273169e+04 </wgt>
<wgt id='1613'> +7.0467179e+04 </wgt>
<wgt id='1614'> +7.2977131e+04 </wgt>
<wgt id='1615'> +7.4334119e+04 </wgt>
<wgt id='1616'> +7.4644826e+04 </wgt>
<wgt id='1617'> +7.1603113e+04 </wgt>
<wgt id='1618'> +7.3968276e+04 </wgt>
<wgt id='1619'> +7.2464278e+04 </wgt>
<wgt id='1620'> +7.3809187e+04 </wgt>
<wgt id='1621'> +7.3427945e+04 </wgt>
<wgt id='1622'> +7.3535000e+04 </wgt>
<wgt id='1623'> +7.2409037e+04 </wgt>
<wgt id='1624'> +7.3787767e+04 </wgt>
<wgt id='1625'> +7.2910197e+04 </wgt>
<wgt id='1626'> +7.2812461e+04 </wgt>
<wgt id='1627'> +7.3343943e+04 </wgt>
<wgt id='1628'> +7.4516429e+04 </wgt>
<wgt id='1629'> +7.3304516e+04 </wgt>
<wgt id='1630'> +7.6305124e+04 </wgt>
<wgt id='1631'> +7.0099920e+04 </wgt>
<wgt id='1632'> +6.9697439e+04 </wgt>
<wgt id='1633'> +7.7010782e+04 </wgt>
<wgt id='1634'> +7.5313270e+04 </wgt>
<wgt id='1635'> +7.1166933e+04 </wgt>
<wgt id='1636'> +7.4098603e+04 </wgt>
<wgt id='1637'> +7.2920923e+04 </wgt>
<wgt id='1638'> +7.3481982e+04 </wgt>
<wgt id='1639'> +7.3413324e+04 </wgt>
<wgt id='1640'> +7.4978136e+04 </wgt>
<wgt id='1641'> +7.2220529e+04 </wgt>
<wgt id='1642'> +7.2047012e+04 </wgt>
<wgt id='1643'> +7.4784577e+04 </wgt>
<wgt id='1644'> +7.4726699e+04 </wgt>
<wgt id='1645'> +7.1285315e+04 </wgt>
<wgt id='1646'> +7.1804123e+04 </wgt>
<wgt id='1647'> +7.5939078e+04 </wgt>
<wgt id='1648'> +7.4438529e+04 </wgt>
<wgt id='1649'> +7.3600974e+04 </wgt>
<wgt id='1650'> +7.4605251e+04 </wgt>
<wgt id='1651'> +7.2113389e+04 </wgt>
<wgt id='1652'> +7.3342731e+04 </wgt>
<wgt id='1653'> +7.3391280e+04 </wgt>
<wgt id='1654'> +7.3642888e+04 </wgt>
<wgt id='1655'> +7.3840097e+04 </wgt>
<wgt id='1656'> +7.3733341e+04 </wgt>
<wgt id='1657'> +7.2133341e+04 </wgt>
<wgt id='1658'> +7.3375136e+04 </wgt>
<wgt id='1659'> +7.2278062e+04 </wgt>
<wgt id='1660'> +7.4782014e+04 </wgt>
<wgt id='1661'> +7.5288989e+04 </wgt>
<wgt id='1662'> +7.1527765e+04 </wgt>
<wgt id='1663'> +7.3297222e+04 </wgt>
<wgt id='1664'> +7.2336268e+04 </wgt>
<wgt id='1665'> +7.4811096e+04 </wgt>
<wgt id='1666'> +7.2599810e+04 </wgt>
<wgt id='1667'> +7.2593831e+04 </wgt>
<wgt id='1668'> +7.4483072e+04 </wgt>
<wgt id='1669'> +7.3442811e+04 </wgt>
<wgt id='1670'> +7.3431355e+04 </wgt>
<wgt id='1671'> +7.4299887e+04 </wgt>
<wgt id='1672'> +7.2995561e+04 </wgt>
<wgt id='1673'> +7.1363394e+04 </wgt>
<wgt id='1674'> +7.5233671e+04 </wgt>
<wgt id='1675'> +7.5168828e+04 </wgt>
<wgt id='1676'> +7.2106723e+04 </wgt>
<wgt id='1677'> +7.2739956e+04 </wgt>
<wgt id='1678'> +7.4829093e+04 </wgt>
<wgt id='1679'> +7.1225294e+04 </wgt>
<wgt id='1680'> +7.5927499e+04 </wgt>
<wgt id='1681'> +7.2099854e+04 </wgt>
<wgt id='1682'> +7.4886735e+04 </wgt>
<wgt id='1683'> +7.3739603e+04 </wgt>
<wgt id='1684'> +7.3634621e+04 </wgt>
<wgt id='1685'> +7.5770752e+04 </wgt>
<wgt id='1686'> +7.0946131e+04 </wgt>
<wgt id='1687'> +7.5803368e+04 </wgt>
<wgt id='1688'> +7.0476464e+04 </wgt>
<wgt id='1689'> +7.5896112e+04 </wgt>
<wgt id='1690'> +7.1795802e+04 </wgt>
<wgt id='1691'> +7.6126508e+04 </wgt>
<wgt id='1692'> +7.2008537e+04 </wgt>
<wgt id='1693'> +7.3502254e+04 </wgt>
<wgt id='1694'> +7.3828069e+04 </wgt>
<wgt id='1695'> +7.1081002e+04 </wgt>
<wgt id='1696'> +7.6130791e+04 </wgt>
<wgt id='1697'> +7.4466481e+04 </wgt>
<wgt id='1698'> +7.3131129e+04 </wgt>
<wgt id='1699'> +7.2468849e+04 </wgt>
<wgt id='1700'> +7.5464229e+04 </wgt>
<wgt id='1701'> +7.5517743e+04 </wgt>
<wgt id='1702'> +7.1888837e+04 </wgt>
<wgt id='1703'> +7.5221821e+04 </wgt>
<wgt id='1704'> +7.3131614e+04 </wgt>
<wgt id='1705'> +7.3479137e+04 </wgt>
<wgt id='1706'> +7.4494945e+04 </wgt>
<wgt id='1707'> +7.2634155e+04 </wgt>
<wgt id='1708'> +7.4629685e+04 </wgt>
<wgt id='1709'> +7.2117159e+04 </wgt>
<wgt id='1710'> +7.5309707e+04 </wgt>
<wgt id='1711'> +7.3353294e+04 </wgt>
<wgt id='1712'> +7.4096337e+04 </wgt>
<wgt id='1713'> +7.4495234e+04 </wgt>
<wgt id='1714'> +7.2451728e+04 </wgt>
<wgt id='1715'> +7.0604128e+04 </wgt>
<wgt id='1716'> +7.5081410e+04 </wgt>
<wgt id='1717'> +7.5158516e+04 </wgt>
<wgt id='1718'> +7.5214908e+04 </wgt>
<wgt id='1719'> +7.5085258e+04 </wgt>
<wgt id='1720'> +7.5194841e+04 </wgt>
<wgt id='1721'> +7.5125334e+04 </wgt>
<wgt id='1722'> +7.5335358e+04 </wgt>
<wgt id='1723'> +7.4868276e+04 </wgt>
<wgt id='1724'> +7.5206978e+04 </wgt>
<wgt id='1725'> +7.5118600e+04 </wgt>
<wgt id='1726'> +7.5140530e+04 </wgt>
<wgt id='1727'> +7.5176443e+04 </wgt>
<wgt id='1728'> +7.4115226e+04 </wgt>
<wgt id='1729'> +7.6174060e+04 </wgt>
<wgt id='1730'> +7.5022737e+04 </wgt>
<wgt id='1731'> +7.5255024e+04 </wgt>
<wgt id='1732'> +7.5827330e+04 </wgt>
<wgt id='1733'> +7.5827330e+04 </wgt>
<wgt id='1734'> +7.5010408e+04 </wgt>
<wgt id='1735'> +7.5254957e+04 </wgt>
<wgt id='1736'> +7.4972524e+04 </wgt>
<wgt id='1737'> +7.5413506e+04 </wgt>
<wgt id='1738'> +7.4902713e+04 </wgt>
<wgt id='1739'> +7.5491474e+04 </wgt>
<wgt id='1740'> +7.5101811e+04 </wgt>
<wgt id='1741'> +7.5291708e+04 </wgt>
<wgt id='1742'> +7.5263924e+04 </wgt>
<wgt id='1743'> +7.5032911e+04 </wgt>
<wgt id='1744'> +7.5040891e+04 </wgt>
<wgt id='1745'> +7.5477925e+04 </wgt>
<wgt id='1746'> +7.5218328e+04 </wgt>
<wgt id='1747'> +7.5109435e+04 </wgt>
<wgt id='1748'> +7.5408930e+04 </wgt>
<wgt id='1749'> +7.4344960e+04 </wgt>
<wgt id='1750'> +7.5113329e+04 </wgt>
<wgt id='1751'> +7.5206019e+04 </wgt>
<wgt id='1752'> +7.4940703e+04 </wgt>
<wgt id='1753'> +7.5460171e+04 </wgt>
<wgt id='1754'> +7.4078556e+04 </wgt>
<wgt id='1755'> +7.5756594e+04 </wgt>
<wgt id='1756'> +7.5319594e+04 </wgt>
<wgt id='1757'> +7.4710320e+04 </wgt>
<wgt id='1758'> +7.5205719e+04 </wgt>
<wgt id='1759'> +7.4865909e+04 </wgt>
<wgt id='1760'> +7.5490648e+04 </wgt>
<wgt id='1761'> +7.4942589e+04 </wgt>
<wgt id='1762'> +7.5346275e+04 </wgt>
<wgt id='1763'> +7.4898515e+04 </wgt>
<wgt id='1764'> +7.4594215e+04 </wgt>
<wgt id='1765'> +7.7934273e+04 </wgt>
<wgt id='1766'> +7.5588388e+04 </wgt>
<wgt id='1767'> +7.4739243e+04 </wgt>
<wgt id='1768'> +7.5112864e+04 </wgt>
<wgt id='1769'> +7.5275420e+04 </wgt>
<wgt id='1770'> +7.4717500e+04 </wgt>
<wgt id='1771'> +7.6015173e+04 </wgt>
<wgt id='1772'> +7.5107398e+04 </wgt>
<wgt id='1773'> +7.5583750e+04 </wgt>
<wgt id='1774'> +7.4237157e+04 </wgt>
<wgt id='1775'> +7.5643168e+04 </wgt>
<wgt id='1776'> +7.5337613e+04 </wgt>
<wgt id='1777'> +7.5105144e+04 </wgt>
<wgt id='1778'> +7.4707503e+04 </wgt>
<wgt id='1779'> +7.5373005e+04 </wgt>
<wgt id='1780'> +7.5739952e+04 </wgt>
<wgt id='1781'> +7.5382139e+04 </wgt>
<wgt id='1782'> +7.5158516e+04 </wgt>
<wgt id='1783'> +7.5206896e+04 </wgt>
<wgt id='1784'> +7.3760316e+04 </wgt>
<wgt id='1785'> +7.3347165e+04 </wgt>
<wgt id='1786'> +7.2621054e+04 </wgt>
<wgt id='1787'> +7.3662799e+04 </wgt>
<wgt id='1788'> +7.0648877e+04 </wgt>
<wgt id='1789'> +7.3442829e+04 </wgt>
<wgt id='1790'> +7.3944988e+04 </wgt>
<wgt id='1791'> +7.3448051e+04 </wgt>
<wgt id='1792'> +7.3834200e+04 </wgt>
<wgt id='1793'> +7.3355442e+04 </wgt>
<wgt id='1794'> +7.3863852e+04 </wgt>
<wgt id='1795'> +7.2925937e+04 </wgt>
<wgt id='1796'> +7.4347524e+04 </wgt>
<wgt id='1797'> +7.3576895e+04 </wgt>
<wgt id='1798'> +7.3530619e+04 </wgt>
<wgt id='1799'> +7.3992363e+04 </wgt>
<wgt id='1800'> +7.3883612e+04 </wgt>
<wgt id='1801'> +7.3878503e+04 </wgt>
<wgt id='1802'> +7.3283944e+04 </wgt>
<wgt id='1803'> +7.3255177e+04 </wgt>
<wgt id='1804'> +7.3080947e+04 </wgt>
<wgt id='1805'> +7.3665544e+04 </wgt>
<wgt id='1806'> +7.3686741e+04 </wgt>
<wgt id='1807'> +7.2712729e+04 </wgt>
<wgt id='1808'> +7.3820892e+04 </wgt>
<wgt id='1809'> +7.4072473e+04 </wgt>
<wgt id='1810'> +7.3567207e+04 </wgt>
<wgt id='1811'> +7.3692551e+04 </wgt>
<wgt id='1812'> +7.3536136e+04 </wgt>
<wgt id='1813'> +7.3592895e+04 </wgt>
<wgt id='1814'> +7.3314162e+04 </wgt>
<wgt id='1815'> +7.3727393e+04 </wgt>
<wgt id='1816'> +7.3695447e+04 </wgt>
<wgt id='1817'> +7.3366448e+04 </wgt>
<wgt id='1818'> +7.3978024e+04 </wgt>
<wgt id='1819'> +7.3558227e+04 </wgt>
<wgt id='1820'> +7.4049052e+04 </wgt>
<wgt id='1821'> +7.3701119e+04 </wgt>
<wgt id='1822'> +7.3566022e+04 </wgt>
<wgt id='1823'> +7.3743499e+04 </wgt>
<wgt id='1824'> +7.3721662e+04 </wgt>
<wgt id='1825'> +7.4214518e+04 </wgt>
<wgt id='1826'> +7.4657785e+04 </wgt>
<wgt id='1827'> +8.3156448e+04 </wgt>
<wgt id='1828'> +8.3382471e+04 </wgt>
<wgt id='1829'> +8.2897413e+04 </wgt>
<wgt id='1830'> +8.3043024e+04 </wgt>
<wgt id='1831'> +8.3234025e+04 </wgt>
<wgt id='1832'> +8.3226428e+04 </wgt>
<wgt id='1833'> +8.3052350e+04 </wgt>
<wgt id='1834'> +8.2034830e+04 </wgt>
<wgt id='1835'> +8.4222111e+04 </wgt>
<wgt id='1836'> +8.3598544e+04 </wgt>
<wgt id='1837'> +8.2663656e+04 </wgt>
<wgt id='1838'> +8.3197851e+04 </wgt>
<wgt id='1839'> +8.3081112e+04 </wgt>
<wgt id='1840'> +8.3052138e+04 </wgt>
<wgt id='1841'> +8.3238255e+04 </wgt>
<wgt id='1842'> +8.3392094e+04 </wgt>
<wgt id='1843'> +8.3251529e+04 </wgt>
<wgt id='1844'> +8.1741928e+04 </wgt>
<wgt id='1845'> +8.4548110e+04 </wgt>
<wgt id='1846'> +8.4557716e+04 </wgt>
<wgt id='1847'> +8.1742701e+04 </wgt>
<wgt id='1848'> +7.9831402e+04 </wgt>
<wgt id='1849'> +8.6612208e+04 </wgt>
<wgt id='1850'> +7.9541403e+04 </wgt>
<wgt id='1851'> +8.6944459e+04 </wgt>
<wgt id='1852'> +8.3135297e+04 </wgt>
<wgt id='1853'> +8.2577705e+04 </wgt>
<wgt id='1854'> +8.3157118e+04 </wgt>
<wgt id='1855'> +8.1315153e+04 </wgt>
<wgt id='1856'> +7.0363950e+04 </wgt>
<wgt id='1857'> +7.0353749e+04 </wgt>
<wgt id='1858'> +7.0299372e+04 </wgt>
<wgt id='1859'> +7.0561181e+04 </wgt>
<wgt id='1860'> +7.0367570e+04 </wgt>
<wgt id='1861'> +7.0575872e+04 </wgt>
<wgt id='1862'> +7.0002980e+04 </wgt>
<wgt id='1863'> +7.0474428e+04 </wgt>
<wgt id='1864'> +6.9984395e+04 </wgt>
<wgt id='1865'> +7.0149158e+04 </wgt>
<wgt id='1866'> +7.0793588e+04 </wgt>
<wgt id='1867'> +7.0286880e+04 </wgt>
<wgt id='1868'> +7.0469972e+04 </wgt>
<wgt id='1869'> +7.0569857e+04 </wgt>
<wgt id='1870'> +6.9956773e+04 </wgt>
<wgt id='1871'> +7.0523541e+04 </wgt>
<wgt id='1872'> +7.0167163e+04 </wgt>
<wgt id='1873'> +7.0408628e+04 </wgt>
<wgt id='1874'> +7.0805278e+04 </wgt>
<wgt id='1875'> +7.0626464e+04 </wgt>
<wgt id='1876'> +7.0968382e+04 </wgt>
<wgt id='1877'> +7.0244157e+04 </wgt>
<wgt id='1878'> +7.0032778e+04 </wgt>
<wgt id='1879'> +6.9671183e+04 </wgt>
<wgt id='1880'> +7.0280693e+04 </wgt>
<wgt id='1881'> +7.0343740e+04 </wgt>
<wgt id='1882'> +7.1010395e+04 </wgt>
<wgt id='1883'> +6.9914234e+04 </wgt>
<wgt id='1884'> +7.1456133e+04 </wgt>
<wgt id='1885'> +7.0338489e+04 </wgt>
<wgt id='1886'> +9.1511433e+04 </wgt>
<wgt id='1887'> +9.2634249e+04 </wgt>
<wgt id='1888'> +7.6307917e+04 </wgt>
<wgt id='1889'> +8.4113212e+04 </wgt>
</rwgt>
</event>
<event npLO=" -1 " npNLO=" 0 ">
 6      1 +7.4519530e+04 3.00000000e+01 7.55820760e-03 1.16851590e-01
        3 -1    0    0  501    0 +0.0000000000e+00 +0.0000000000e+00 +1.5647118547e+02 1.5647118547e+02 0.0000000000e+00 0.0000e+00 -1.0000e+00
       21 -1    0    0  502  501 +0.0000000000e+00 +0.0000000000e+00 -6.5658652849e+01 6.5658652849e+01 0.0000000000e+00 0.0000e+00 -1.0000e+00
      -24  2    1    2    0    0 +6.9024633528e-01 +5.5538851385e+01 +1.2383883802e+02 1.5750958374e+02 7.9926032777e+01 0.0000e+00 0.0000e+00
       13  1    3    3    0    0 +2.0211804583e+01 +5.0148980009e+01 +1.2603080006e+02 1.3713934448e+02 0.0000000000e+00 0.0000e+00 -1.0000e+00
      -14  1    3    3    0    0 -1.9521558247e+01 +5.3898713759e+00 -2.1919620453e+00 2.0370239259e+01 0.0000000000e+00 0.0000e+00 1.0000e+00
        4  1    1    2  502    0 -6.9024633528e-01 -5.5538851385e+01 -3.3026305399e+01 6.4620254576e+01 0.0000000000e+00 0.0000e+00 -1.0000e+00
#aMCatNLO 2  0  0  2  2 0.59193725E+02 0.00000000E+00 -9  5  0 0.00000000E+00 0.00000000E+00 0.00000000E+00 0.00000000E+00 0.00000000E+00
<rwgt>
<wgt id='1001'> +7.4519530e+04 </wgt>
<wgt id='1002'> +6.7534605e+04 </wgt>
<wgt id='1003'> +8.3163918e+04 </wgt>
<wgt id='1004'> +7.8236217e+04 </wgt>
<wgt id='1005'> +7.0902914e+04 </wgt>
<wgt id='1006'> +8.7311744e+04 </wgt>
<wgt id='1007'> +6.9531084e+04 </wgt>
<wgt id='1008'> +6.3013738e+04 </wgt>
<wgt id='1009'> +7.7596802e+04 </wgt>
<wgt id='1010'> +7.4519530e+04 </wgt>
<wgt id='1011'> +7.4562931e+04 </wgt>
<wgt id='1012'> +7.4659008e+04 </wgt>
<wgt id='1013'> +7.4954993e+04 </wgt>
<wgt id='1014'> +7.4634749e+04 </wgt>
<wgt id='1015'> +7.4765562e+04 </wgt>
<wgt id='1016'> +7.4999921e+04 </wgt>
<wgt id='1017'> +7.4843210e+04 </wgt>
<wgt id='1018'> +7.5158201e+04 </wgt>
<wgt id='1019'> +7.3792562e+04 </wgt>
<wgt id='1020'> +7.4852486e+04 </wgt>
<wgt id='1021'> +7.3564069e+04 </wgt>
<wgt id='1022'> +7.4807188e+04 </wgt>
<wgt id='1023'> +7.4054111e+04 </wgt>
<wgt id='1024'> +7.4289294e+04 </wgt>
<wgt id='1025'> +7.3082132e+04 </wgt>
<wgt id='1026'> +7.5230263e+04 </wgt>
<wgt id='1027'> +7.4409364e+04 </wgt>
<wgt id='1028'> +7.5726737e+04 </wgt>
<wgt id='1029'> +7.4183368e+04 </wgt>
<wgt id='1030'> +7.4718363e+04 </wgt>
<wgt id='1031'> +7.5417909e+04 </wgt>
<wgt id='1032'> +7.4029478e+04 </wgt>
<wgt id='1033'> +7.4618023e+04 </wgt>
<wgt id='1034'> +7.5412241e+04 </wgt>
<wgt id='1035'> +7.5054483e+04 </wgt>
<wgt id='1036'> +7.4844032e+04 </wgt>
<wgt id='1037'> +7.4077117e+04 </wgt>
<wgt id='1038'> +7.3994739e+04 </wgt>
<wgt id='1039'> +7.4694396e+04 </wgt>
<wgt id='1040'> +7.4457301e+04 </wgt>
<wgt id='1041'> +7.4058861e+04 </wgt>
<wgt id='1042'> +7.4739131e+04 </wgt>
<wgt id='1043'> +7.4187207e+04 </wgt>
<wgt id='1044'> +7.4821033e+04 </wgt>
<wgt id='1045'> +7.4685096e+04 </wgt>
<wgt id='1046'> +7.4492667e+04 </wgt>
<wgt id='1047'> +7.4202394e+04 </wgt>
<wgt id='1048'> +7.4800361e+04 </wgt>
<wgt id='1049'> +7.3811384e+04 </wgt>
<wgt id='1050'> +7.5009617e+04 </wgt>
<wgt id='1051'> +7.4792974e+04 </wgt>
<wgt id='1052'> +7.4728995e+04 </wgt>
<wgt id='1053'> +7.4767631e+04 </wgt>
<wgt id='1054'> +7.4730670e+04 </wgt>
<wgt id='1055'> +7.4768805e+04 </wgt>
<wgt id='1056'> +7.3904648e+04 </wgt>
<wgt id='1057'> +7.4286195e+04 </wgt>
<wgt id='1058'> +7.3926076e+04 </wgt>
<wgt id='1059'> +7.5519579e+04 </wgt>
<wgt id='1060'> +7.4266675e+04 </wgt>
<wgt id='1061'> +7.4672621e+04 </wgt>
<wgt id='1062'> +7.4865023e+04 </wgt>
<wgt id='1063'> +7.4829754e+04 </wgt>
<wgt id='1064'> +7.4307265e+04 </wgt>
<wgt id='1065'> +7.4533124e+04 </wgt>
<wgt id='1066'> +7.4721172e+04 </wgt>
<wgt id='1067'> +7.4007033e+04 </wgt>
<wgt id='1068'> +7.4040951e+04 </wgt>
<wgt id='1069'> +7.4311404e+04 </wgt>
<wgt id='1070'> +7.4516836e+04 </wgt>
<wgt id='1071'> +7.4576597e+04 </wgt>
<wgt id='1072'> +7.4328372e+04 </wgt>
<wgt id='1073'> +7.4416814e+04 </wgt>
<wgt id='1074'> +7.4579500e+04 </wgt>
<wgt id='1075'> +7.4482579e+04 </wgt>
<wgt id='1076'> +7.4719807e+04 </wgt>
<wgt id='1077'> +7.4644499e+04 </wgt>
<wgt id='1078'> +7.4561343e+04 </wgt>
<wgt id='1079'> +7.4673175e+04 </wgt>
<wgt id='1080'> +7.4603148e+04 </wgt>
<wgt id='1081'> +7.4598681e+04 </wgt>
<wgt id='1082'> +7.4431028e+04 </wgt>
<wgt id='1083'> +7.4557321e+04 </wgt>
<wgt id='1084'> +7.4673049e+04 </wgt>
<wgt id='1085'> +7.4498430e+04 </wgt>
<wgt id='1086'> +7.4463267e+04 </wgt>
<wgt id='1087'> +7.4669246e+04 </wgt>
<wgt id='1088'> +7.4544245e+04 </wgt>
<wgt id='1089'> +7.4699387e+04 </wgt>
<wgt id='1090'> +7.4558692e+04 </wgt>
<wgt id='1091'> +7.4583125e+04 </wgt>
<wgt id='1092'> +7.4555897e+04 </wgt>
<wgt id='1093'> +7.4609814e+04 </wgt>
<wgt id='1094'> +7.4582155e+04 </wgt>
<wgt id='1095'> +7.4583254e+04 </wgt>
<wgt id='1096'> +7.4454321e+04 </wgt>
<wgt id='1097'> +7.4537525e+04 </wgt>
<wgt id='1098'> +7.4528128e+04 </wgt>
<wgt id='1099'> +7.4536912e+04 </wgt>
<wgt id='1100'> +7.4468941e+04 </wgt>
<wgt id='1101'> +7.4502140e+04 </wgt>
<wgt id='1102'> +7.4494201e+04 </wgt>
<wgt id='1103'> +7.4483809e+04 </wgt>
<wgt id='1104'> +7.4512266e+04 </wgt>
<wgt id='1105'> +7.4533808e+04 </wgt>
<wgt id='1106'> +7.4519689e+04 </wgt>
<wgt id='1107'> +7.4481588e+04 </wgt>
<wgt id='1108'> +7.4589539e+04 </wgt>
<wgt id='1109'> +7.4578774e+04 </wgt>
<wgt id='1110'> +7.4519533e+04 </wgt>
<wgt id='1111'> +7.3163793e+04 </wgt>
<wgt id='1112'> +7.5125425e+04 </wgt>
<wgt id='1113'> +7.4519533e+04 </wgt>
<wgt id='1114'> +5.5726174e+04 </wgt>
<wgt id='1115'> +7.2889952e+04 </wgt>
<wgt id='1116'> +7.3830613e+04 </wgt>
<wgt id='1117'> +7.5067605e+04 </wgt>
<wgt id='1118'> +7.8590369e+04 </wgt>
<wgt id='1119'> +6.5289010e+04 </wgt>
<wgt id='1120'> +7.3667971e+04 </wgt>
<wgt id='1121'> +7.4869053e+04 </wgt>
<wgt id='1122'> +7.6726451e+04 </wgt>
<wgt id='1123'> +7.7297339e+04 </wgt>
<wgt id='1124'> +7.6297257e+04 </wgt>
<wgt id='1125'> +7.6863293e+04 </wgt>
<wgt id='1126'> +7.7858689e+04 </wgt>
<wgt id='1127'> +7.4159109e+04 </wgt>
<wgt id='1128'> +7.1675527e+04 </wgt>
<wgt id='1129'> +7.6044911e+04 </wgt>
<wgt id='1130'> +7.2295716e+04 </wgt>
<wgt id='1131'> +7.5073774e+04 </wgt>
<wgt id='1132'> +8.1812428e+04 </wgt>
<wgt id='1133'> +8.2421182e+04 </wgt>
<wgt id='1134'> +7.8384310e+04 </wgt>
<wgt id='1135'> +7.3918864e+04 </wgt>
<wgt id='1136'> +7.1224772e+04 </wgt>
<wgt id='1137'> +7.4184158e+04 </wgt>
<wgt id='1138'> +8.0603242e+04 </wgt>
<wgt id='1139'> +7.1427480e+04 </wgt>
<wgt id='1140'> +7.2059504e+04 </wgt>
<wgt id='1141'> +7.5455699e+04 </wgt>
<wgt id='1142'> +7.6675744e+04 </wgt>
<wgt id='1143'> +7.2393453e+04 </wgt>
<wgt id='1144'> +7.1213084e+04 </wgt>
<wgt id='1145'> +7.3816967e+04 </wgt>
<wgt id='1146'> +7.0433071e+04 </wgt>
<wgt id='1147'> +7.3763277e+04 </wgt>
<wgt id='1148'> +7.1203953e+04 </wgt>
<wgt id='1149'> +7.5528641e+04 </wgt>
<wgt id='1150'> +7.2600264e+04 </wgt>
<wgt id='1151'> +7.6452395e+04 </wgt>
<wgt id='1152'> +7.6647356e+04 </wgt>
<wgt id='1153'> +7.3162667e+04 </wgt>
<wgt id='1154'> +7.8500377e+04 </wgt>
<wgt id='1155'> +7.4620584e+04 </wgt>
<wgt id='1156'> +7.4288338e+04 </wgt>
<wgt id='1157'> +7.2049510e+04 </wgt>
<wgt id='1158'> +7.0384570e+04 </wgt>
<wgt id='1159'> +7.3427641e+04 </wgt>
<wgt id='1160'> +7.5891574e+04 </wgt>
<wgt id='1161'> +7.9105837e+04 </wgt>
<wgt id='1162'> +7.5676321e+04 </wgt>
<wgt id='1163'> +7.5175440e+04 </wgt>
<wgt id='1164'> +7.2106240e+04 </wgt>
<wgt id='1165'> +7.6981224e+04 </wgt>
<wgt id='1166'> +7.8527090e+04 </wgt>
<wgt id='1167'> +7.0608189e+04 </wgt>
<wgt id='1168'> +7.2656817e+04 </wgt>
<wgt id='1169'> +7.2058560e+04 </wgt>
<wgt id='1170'> +7.1705193e+04 </wgt>
<wgt id='1171'> +7.7046088e+04 </wgt>
<wgt id='1172'> +7.6785258e+04 </wgt>
<wgt id='1173'> +7.0169797e+04 </wgt>
<wgt id='1174'> +7.0869930e+04 </wgt>
<wgt id='1175'> +7.2211632e+04 </wgt>
<wgt id='1176'> +7.6449939e+04 </wgt>
<wgt id='1177'> +7.7437372e+04 </wgt>
<wgt id='1178'> +7.5081961e+04 </wgt>
<wgt id='1179'> +7.1762556e+04 </wgt>
<wgt id='1180'> +7.1014181e+04 </wgt>
<wgt id='1181'> +7.5915247e+04 </wgt>
<wgt id='1182'> +7.4770214e+04 </wgt>
<wgt id='1183'> +7.1487451e+04 </wgt>
<wgt id='1184'> +7.8278974e+04 </wgt>
<wgt id='1185'> +7.9963087e+04 </wgt>
<wgt id='1186'> +8.0411792e+04 </wgt>
<wgt id='1187'> +7.9420920e+04 </wgt>
<wgt id='1188'> +8.0391170e+04 </wgt>
<wgt id='1189'> +7.5828509e+04 </wgt>
<wgt id='1190'> +7.3857597e+04 </wgt>
<wgt id='1191'> +7.7072996e+04 </wgt>
<wgt id='1192'> +8.0069381e+04 </wgt>
<wgt id='1193'> +7.2884804e+04 </wgt>
<wgt id='1194'> +7.3471770e+04 </wgt>
<wgt id='1195'> +7.6044911e+04 </wgt>
<wgt id='1196'> +7.7343158e+04 </wgt>
<wgt id='1197'> +7.6588417e+04 </wgt>
<wgt id='1198'> +7.4955659e+04 </wgt>
<wgt id='1199'> +6.7129101e+04 </wgt>
<wgt id='1200'> +7.5193334e+04 </wgt>
<wgt id='1201'> +6.7102552e+04 </wgt>
<wgt id='1202'> +8.0903031e+04 </wgt>
<wgt id='1203'> +7.6200617e+04 </wgt>
<wgt id='1204'> +7.2086160e+04 </wgt>
<wgt id='1205'> +7.7972614e+04 </wgt>
<wgt id='1206'> +7.7686145e+04 </wgt>
<wgt id='1207'> +7.0901077e+04 </wgt>
<wgt id='1208'> +6.8771701e+04 </wgt>
<wgt id='1209'> +7.5322797e+04 </wgt>
<wgt id='1210'> +6.9738724e+04 </wgt>
<wgt id='1211'> +7.3533940e+04 </wgt>
<wgt id='1212'> +7.4984388e+04 </wgt>
<wgt id='1213'> +7.4343011e+04 </wgt>
<wgt id='1214'> +7.4327100e+04 </wgt>
<wgt id='1215'> +6.7009557e+04 </wgt>
<wgt id='1216'> +6.8527158e+04 </wgt>
<wgt id='1217'> +7.0119280e+04 </wgt>
<wgt id='1218'> +7.1223118e+04 </wgt>
<wgt id='1219'> +7.4220669e+04 </wgt>
<wgt id='1220'> +7.5346067e+04 </wgt>
<wgt id='1221'> +7.6556569e+04 </wgt>
<wgt id='1222'> +7.8138793e+04 </wgt>
<wgt id='1223'> +7.1634046e+04 </wgt>
<wgt id='1224'> +7.1966331e+04 </wgt>
<wgt id='1225'> +7.1519973e+04 </wgt>
<wgt id='1226'> +7.1810435e+04 </wgt>
<wgt id='1227'> +7.1861893e+04 </wgt>
<wgt id='1228'> +7.1645531e+04 </wgt>
<wgt id='1229'> +7.1884616e+04 </wgt>
<wgt id='1230'> +7.1667070e+04 </wgt>
<wgt id='1231'> +7.1737296e+04 </wgt>
<wgt id='1232'> +7.1622109e+04 </wgt>
<wgt id='1233'> +7.2192882e+04 </wgt>
<wgt id='1234'> +7.1828652e+04 </wgt>
<wgt id='1235'> +7.1481367e+04 </wgt>
<wgt id='1236'> +7.1450192e+04 </wgt>
<wgt id='1237'> +7.1140010e+04 </wgt>
<wgt id='1238'> +7.2486187e+04 </wgt>
<wgt id='1239'> +7.1048219e+04 </wgt>
<wgt id='1240'> +7.1927216e+04 </wgt>
<wgt id='1241'> +7.1218014e+04 </wgt>
<wgt id='1242'> +7.1907980e+04 </wgt>
<wgt id='1243'> +7.2456772e+04 </wgt>
<wgt id='1244'> +7.0690393e+04 </wgt>
<wgt id='1245'> +7.1408709e+04 </wgt>
<wgt id='1246'> +7.1554210e+04 </wgt>
<wgt id='1247'> +7.1331346e+04 </wgt>
<wgt id='1248'> +7.2335319e+04 </wgt>
<wgt id='1249'> +7.1666895e+04 </wgt>
<wgt id='1250'> +7.1801369e+04 </wgt>
<wgt id='1251'> +7.1981064e+04 </wgt>
<wgt id='1252'> +7.1375366e+04 </wgt>
<wgt id='1253'> +7.1100257e+04 </wgt>
<wgt id='1254'> +7.1589076e+04 </wgt>
<wgt id='1255'> +7.1688807e+04 </wgt>
<wgt id='1256'> +7.1237056e+04 </wgt>
<wgt id='1257'> +7.2160711e+04 </wgt>
<wgt id='1258'> +7.1614011e+04 </wgt>
<wgt id='1259'> +7.2130795e+04 </wgt>
<wgt id='1260'> +7.2364325e+04 </wgt>
<wgt id='1261'> +7.2247689e+04 </wgt>
<wgt id='1262'> +7.1317174e+04 </wgt>
<wgt id='1263'> +7.1621568e+04 </wgt>
<wgt id='1264'> +7.1680580e+04 </wgt>
<wgt id='1265'> +7.2205324e+04 </wgt>
<wgt id='1266'> +7.2312991e+04 </wgt>
<wgt id='1267'> +7.2082006e+04 </wgt>
<wgt id='1268'> +7.2514628e+04 </wgt>
<wgt id='1269'> +7.1180755e+04 </wgt>
<wgt id='1270'> +7.1187764e+04 </wgt>
<wgt id='1271'> +7.1651838e+04 </wgt>
<wgt id='1272'> +7.1422634e+04 </wgt>
<wgt id='1273'> +7.1131534e+04 </wgt>
<wgt id='1274'> +7.1539802e+04 </wgt>
<wgt id='1275'> +7.1639487e+04 </wgt>
<wgt id='1276'> +7.1415219e+04 </wgt>
<wgt id='1277'> +7.1291767e+04 </wgt>
<wgt id='1278'> +7.1631428e+04 </wgt>
<wgt id='1279'> +7.1365410e+04 </wgt>
<wgt id='1280'> +7.1535232e+04 </wgt>
<wgt id='1281'> +7.1391144e+04 </wgt>
<wgt id='1282'> +7.1839478e+04 </wgt>
<wgt id='1283'> +7.1818704e+04 </wgt>
<wgt id='1284'> +7.1763176e+04 </wgt>
<wgt id='1285'> +7.1740278e+04 </wgt>
<wgt id='1286'> +7.1830707e+04 </wgt>
<wgt id='1287'> +7.1729323e+04 </wgt>
<wgt id='1288'> +7.1925867e+04 </wgt>
<wgt id='1289'> +7.1844438e+04 </wgt>
<wgt id='1290'> +7.1478620e+04 </wgt>
<wgt id='1291'> +7.1566986e+04 </wgt>
<wgt id='1292'> +7.1776981e+04 </wgt>
<wgt id='1293'> +7.1752683e+04 </wgt>
<wgt id='1294'> +7.1581875e+04 </wgt>
<wgt id='1295'> +7.1978442e+04 </wgt>
<wgt id='1296'> +7.1638438e+04 </wgt>
<wgt id='1297'> +7.1659142e+04 </wgt>
<wgt id='1298'> +7.1544371e+04 </wgt>
<wgt id='1299'> +7.1546468e+04 </wgt>
<wgt id='1300'> +7.1765951e+04 </wgt>
<wgt id='1301'> +7.1712491e+04 </wgt>
<wgt id='1302'> +7.1627100e+04 </wgt>
<wgt id='1303'> +7.1617712e+04 </wgt>
<wgt id='1304'> +7.1517098e+04 </wgt>
<wgt id='1305'> +7.1655034e+04 </wgt>
<wgt id='1306'> +7.1577912e+04 </wgt>
<wgt id='1307'> +7.1731310e+04 </wgt>
<wgt id='1308'> +7.1630437e+04 </wgt>
<wgt id='1309'> +7.1622899e+04 </wgt>
<wgt id='1310'> +7.1502777e+04 </wgt>
<wgt id='1311'> +7.1643717e+04 </wgt>
<wgt id='1312'> +7.1671623e+04 </wgt>
<wgt id='1313'> +7.1724171e+04 </wgt>
<wgt id='1314'> +7.1609843e+04 </wgt>
<wgt id='1315'> +7.1664746e+04 </wgt>
<wgt id='1316'> +7.1761444e+04 </wgt>
<wgt id='1317'> +7.1633042e+04 </wgt>
<wgt id='1318'> +7.1581331e+04 </wgt>
<wgt id='1319'> +7.1625088e+04 </wgt>
<wgt id='1320'> +7.1574381e+04 </wgt>
<wgt id='1321'> +7.1659444e+04 </wgt>
<wgt id='1322'> +7.1710394e+04 </wgt>
<wgt id='1323'> +7.1653683e+04 </wgt>
<wgt id='1324'> +7.0867080e+04 </wgt>
<wgt id='1325'> +7.2368881e+04 </wgt>
<wgt id='1326'> +6.5539772e+04 </wgt>
<wgt id='1327'> +6.4668865e+04 </wgt>
<wgt id='1328'> +7.9067450e+04 </wgt>
<wgt id='1329'> +7.7648035e+04 </wgt>
<wgt id='1330'> +7.8150174e+04 </wgt>
<wgt id='1331'> +7.9347319e+04 </wgt>
<wgt id='1332'> +7.4383400e+04 </wgt>
<wgt id='1333'> +7.7592712e+04 </wgt>
<wgt id='1334'> +7.7748770e+04 </wgt>
<wgt id='1335'> +8.2104499e+04 </wgt>
<wgt id='1336'> +7.7744504e+04 </wgt>
<wgt id='1337'> +7.8505687e+04 </wgt>
<wgt id='1338'> +8.3641402e+04 </wgt>
<wgt id='1339'> +8.0189353e+04 </wgt>
<wgt id='1340'> +8.1089428e+04 </wgt>
<wgt id='1341'> +8.1643557e+04 </wgt>
<wgt id='1342'> +7.5170014e+04 </wgt>
<wgt id='1343'> +7.9869765e+04 </wgt>
<wgt id='1344'> +7.8086388e+04 </wgt>
<wgt id='1345'> +7.8967920e+04 </wgt>
<wgt id='1346'> +7.6834638e+04 </wgt>
<wgt id='1347'> +7.7346899e+04 </wgt>
<wgt id='1348'> +8.1882807e+04 </wgt>
<wgt id='1349'> +7.9974997e+04 </wgt>
<wgt id='1350'> +7.8042821e+04 </wgt>
<wgt id='1351'> +8.0701367e+04 </wgt>
<wgt id='1352'> +7.7246776e+04 </wgt>
<wgt id='1353'> +7.4743860e+04 </wgt>
<wgt id='1354'> +7.8215051e+04 </wgt>
<wgt id='1355'> +7.7913325e+04 </wgt>
<wgt id='1356'> +7.6678800e+04 </wgt>
<wgt id='1357'> +8.1057649e+04 </wgt>
<wgt id='1358'> +7.8046482e+04 </wgt>
<wgt id='1359'> +8.1694437e+04 </wgt>
<wgt id='1360'> +7.5286231e+04 </wgt>
<wgt id='1361'> +7.3669166e+04 </wgt>
<wgt id='1362'> +8.0919416e+04 </wgt>
<wgt id='1363'> +7.8638763e+04 </wgt>
<wgt id='1364'> +8.0838983e+04 </wgt>
<wgt id='1365'> +7.7675305e+04 </wgt>
<wgt id='1366'> +7.6460929e+04 </wgt>
<wgt id='1367'> +8.1347788e+04 </wgt>
<wgt id='1368'> +8.0409550e+04 </wgt>
<wgt id='1369'> +7.6357873e+04 </wgt>
<wgt id='1370'> +8.5236727e+04 </wgt>
<wgt id='1371'> +8.0079635e+04 </wgt>
<wgt id='1372'> +7.4053393e+04 </wgt>
<wgt id='1373'> +8.0946501e+04 </wgt>
<wgt id='1374'> +7.9068116e+04 </wgt>
<wgt id='1375'> +7.9093788e+04 </wgt>
<wgt id='1376'> +7.8814330e+04 </wgt>
<wgt id='1377'> +7.7691648e+04 </wgt>
<wgt id='1378'> +7.9087349e+04 </wgt>
<wgt id='1379'> +7.9606016e+04 </wgt>
<wgt id='1380'> +7.8698532e+04 </wgt>
<wgt id='1381'> +7.8325092e+04 </wgt>
<wgt id='1382'> +8.3582268e+04 </wgt>
<wgt id='1383'> +7.9530261e+04 </wgt>
<wgt id='1384'> +7.8005335e+04 </wgt>
<wgt id='1385'> +8.7101133e+04 </wgt>
<wgt id='1386'> +8.0019753e+04 </wgt>
<wgt id='1387'> +7.8874854e+04 </wgt>
<wgt id='1388'> +7.7305542e+04 </wgt>
<wgt id='1389'> +7.9059741e+04 </wgt>
<wgt id='1390'> +8.0900749e+04 </wgt>
<wgt id='1391'> +8.1831720e+04 </wgt>
<wgt id='1392'> +8.2959499e+04 </wgt>
<wgt id='1393'> +8.0356673e+04 </wgt>
<wgt id='1394'> +7.7675305e+04 </wgt>
<wgt id='1395'> +8.2034048e+04 </wgt>
<wgt id='1396'> +7.5955684e+04 </wgt>
<wgt id='1397'> +7.8102916e+04 </wgt>
<wgt id='1398'> +7.9812654e+04 </wgt>
<wgt id='1399'> +8.0577312e+04 </wgt>
<wgt id='1400'> +7.8507525e+04 </wgt>
<wgt id='1401'> +8.1048963e+04 </wgt>
<wgt id='1402'> +7.8109099e+04 </wgt>
<wgt id='1403'> +7.5680269e+04 </wgt>
<wgt id='1404'> +8.1377893e+04 </wgt>
<wgt id='1405'> +8.1632896e+04 </wgt>
<wgt id='1406'> +7.7808516e+04 </wgt>
<wgt id='1407'> +7.6877180e+04 </wgt>
<wgt id='1408'> +7.7640915e+04 </wgt>
<wgt id='1409'> +7.8383162e+04 </wgt>
<wgt id='1410'> +7.5369346e+04 </wgt>
<wgt id='1411'> +7.9748400e+04 </wgt>
<wgt id='1412'> +7.8095458e+04 </wgt>
<wgt id='1413'> +7.9267443e+04 </wgt>
<wgt id='1414'> +8.3918524e+04 </wgt>
<wgt id='1415'> +7.5484033e+04 </wgt>
<wgt id='1416'> +8.2389824e+04 </wgt>
<wgt id='1417'> +8.1037870e+04 </wgt>
<wgt id='1418'> +7.7225671e+04 </wgt>
<wgt id='1419'> +7.9342407e+04 </wgt>
<wgt id='1420'> +7.9302863e+04 </wgt>
<wgt id='1421'> +7.7027384e+04 </wgt>
<wgt id='1422'> +8.1394005e+04 </wgt>
<wgt id='1423'> +7.8713357e+04 </wgt>
<wgt id='1424'> +7.8083435e+04 </wgt>
<wgt id='1425'> +7.8010659e+04 </wgt>
<wgt id='1426'> +8.0554903e+04 </wgt>
<wgt id='1427'> +8.0769489e+04 </wgt>
<wgt id='1428'> +7.5800617e+04 </wgt>
<wgt id='1429'> +7.8564229e+04 </wgt>
<wgt id='1430'> +8.0232796e+04 </wgt>
<wgt id='1431'> +7.9162554e+04 </wgt>
<wgt id='1432'> +7.8736335e+04 </wgt>
<wgt id='1433'> +7.9467827e+04 </wgt>
<wgt id='1434'> +7.9045754e+04 </wgt>
<wgt id='1435'> +7.9536493e+04 </wgt>
<wgt id='1436'> +8.0339568e+04 </wgt>
<wgt id='1437'> +7.9069288e+04 </wgt>
<wgt id='1438'> +7.9587396e+04 </wgt>
<wgt id='1439'> +7.9866590e+04 </wgt>
<wgt id='1440'> +7.9390663e+04 </wgt>
<wgt id='1441'> +7.9519890e+04 </wgt>
<wgt id='1442'> +8.0276873e+04 </wgt>
<wgt id='1443'> +7.9416572e+04 </wgt>
<wgt id='1444'> +7.8832533e+04 </wgt>
<wgt id='1445'> +8.0329236e+04 </wgt>
<wgt id='1446'> +7.9385382e+04 </wgt>
<wgt id='1447'> +7.9546015e+04 </wgt>
<wgt id='1448'> +7.9223206e+04 </wgt>
<wgt id='1449'> +7.9145465e+04 </wgt>
<wgt id='1450'> +7.8652502e+04 </wgt>
<wgt id='1451'> +7.9434534e+04 </wgt>
<wgt id='1452'> +7.9328341e+04 </wgt>
<wgt id='1453'> +7.9324006e+04 </wgt>
<wgt id='1454'> +7.9368908e+04 </wgt>
<wgt id='1455'> +7.9123606e+04 </wgt>
<wgt id='1456'> +7.9339174e+04 </wgt>
<wgt id='1457'> +7.9110047e+04 </wgt>
<wgt id='1458'> +7.8954540e+04 </wgt>
<wgt id='1459'> +7.9396248e+04 </wgt>
<wgt id='1460'> +7.9027340e+04 </wgt>
<wgt id='1461'> +7.9067966e+04 </wgt>
<wgt id='1462'> +7.9039298e+04 </wgt>
<wgt id='1463'> +7.9087459e+04 </wgt>
<wgt id='1464'> +7.9078724e+04 </wgt>
<wgt id='1465'> +7.9179383e+04 </wgt>
<wgt id='1466'> +7.9130766e+04 </wgt>
<wgt id='1467'> +7.9211143e+04 </wgt>
<wgt id='1468'> +7.9149026e+04 </wgt>
<wgt id='1469'> +7.9150093e+04 </wgt>
<wgt id='1470'> +7.9157729e+04 </wgt>
<wgt id='1471'> +7.9192233e+04 </wgt>
<wgt id='1472'> +7.9075719e+04 </wgt>
<wgt id='1473'> +7.9197788e+04 </wgt>
<wgt id='1474'> +7.9221692e+04 </wgt>
<wgt id='1475'> +7.9079562e+04 </wgt>
<wgt id='1476'> +7.9135130e+04 </wgt>
<wgt id='1477'> +7.9141000e+04 </wgt>
<wgt id='1478'> +7.9205389e+04 </wgt>
<wgt id='1479'> +7.9133936e+04 </wgt>
<wgt id='1480'> +7.9052049e+04 </wgt>
<wgt id='1481'> +7.9255692e+04 </wgt>
<wgt id='1482'> +7.8564229e+04 </wgt>
<wgt id='1483'> +8.0232796e+04 </wgt>
<wgt id='1484'> +8.0710779e+04 </wgt>
<wgt id='1485'> +8.0141208e+04 </wgt>
<wgt id='1486'> +7.8605734e+04 </wgt>
<wgt id='1487'> +8.1486788e+04 </wgt>
<wgt id='1488'> +8.1183497e+04 </wgt>
<wgt id='1489'> +8.1307637e+04 </wgt>
<wgt id='1490'> +8.3506174e+04 </wgt>
<wgt id='1491'> +8.0241629e+04 </wgt>
<wgt id='1492'> +8.5088064e+04 </wgt>
<wgt id='1493'> +7.7459148e+04 </wgt>
<wgt id='1494'> +7.9911380e+04 </wgt>
<wgt id='1495'> +8.5034970e+04 </wgt>
<wgt id='1496'> +8.4663342e+04 </wgt>
<wgt id='1497'> +8.3816826e+04 </wgt>
<wgt id='1498'> +7.6415154e+04 </wgt>
<wgt id='1499'> +7.7763636e+04 </wgt>
<wgt id='1500'> +8.0556464e+04 </wgt>
<wgt id='1501'> +8.0989217e+04 </wgt>
<wgt id='1502'> +8.1368015e+04 </wgt>
<wgt id='1503'> +8.3368128e+04 </wgt>
<wgt id='1504'> +8.1449525e+04 </wgt>
<wgt id='1505'> +7.6244379e+04 </wgt>
<wgt id='1506'> +8.4174058e+04 </wgt>
<wgt id='1507'> +8.0592605e+04 </wgt>
<wgt id='1508'> +8.2325533e+04 </wgt>
<wgt id='1509'> +7.8282506e+04 </wgt>
<wgt id='1510'> +7.7315604e+04 </wgt>
<wgt id='1511'> +7.5892541e+04 </wgt>
<wgt id='1512'> +7.9220411e+04 </wgt>
<wgt id='1513'> +8.2095903e+04 </wgt>
<wgt id='1514'> +8.2500516e+04 </wgt>
<wgt id='1515'> +8.4625786e+04 </wgt>
<wgt id='1516'> +7.8138226e+04 </wgt>
<wgt id='1517'> +7.9396100e+04 </wgt>
<wgt id='1518'> +7.9873952e+04 </wgt>
<wgt id='1519'> +8.2629507e+04 </wgt>
<wgt id='1520'> +7.7729377e+04 </wgt>
<wgt id='1521'> +8.2094546e+04 </wgt>
<wgt id='1522'> +8.0468848e+04 </wgt>
<wgt id='1523'> +8.2084751e+04 </wgt>
<wgt id='1524'> +8.0690237e+04 </wgt>
<wgt id='1525'> +7.8811211e+04 </wgt>
<wgt id='1526'> +7.8984143e+04 </wgt>
<wgt id='1527'> +8.3083278e+04 </wgt>
<wgt id='1528'> +7.9057421e+04 </wgt>
<wgt id='1529'> +8.2358407e+04 </wgt>
<wgt id='1530'> +8.2664344e+04 </wgt>
<wgt id='1531'> +8.0521449e+04 </wgt>
<wgt id='1532'> +7.8411602e+04 </wgt>
<wgt id='1533'> +7.6321199e+04 </wgt>
<wgt id='1534'> +8.0118673e+04 </wgt>
<wgt id='1535'> +8.1864147e+04 </wgt>
<wgt id='1536'> +8.2333738e+04 </wgt>
<wgt id='1537'> +7.8717682e+04 </wgt>
<wgt id='1538'> +8.5575514e+04 </wgt>
<wgt id='1539'> +8.0566295e+04 </wgt>
<wgt id='1540'> +8.0786393e+04 </wgt>
<wgt id='1541'> +7.8809545e+04 </wgt>
<wgt id='1542'> +8.4609069e+04 </wgt>
<wgt id='1543'> +7.8946263e+04 </wgt>
<wgt id='1544'> +8.1924296e+04 </wgt>
<wgt id='1545'> +7.8830740e+04 </wgt>
<wgt id='1546'> +8.0358529e+04 </wgt>
<wgt id='1547'> +8.1255244e+04 </wgt>
<wgt id='1548'> +7.9370796e+04 </wgt>
<wgt id='1549'> +8.1501622e+04 </wgt>
<wgt id='1550'> +7.7012546e+04 </wgt>
<wgt id='1551'> +7.9751445e+04 </wgt>
<wgt id='1552'> +7.9376800e+04 </wgt>
<wgt id='1553'> +7.9948063e+04 </wgt>
<wgt id='1554'> +7.8064109e+04 </wgt>
<wgt id='1555'> +8.3834440e+04 </wgt>
<wgt id='1556'> +8.9088982e+04 </wgt>
<wgt id='1557'> +8.2264912e+04 </wgt>
<wgt id='1558'> +7.9585160e+04 </wgt>
<wgt id='1559'> +7.8136081e+04 </wgt>
<wgt id='1560'> +7.6929502e+04 </wgt>
<wgt id='1561'> +7.9038580e+04 </wgt>
<wgt id='1562'> +7.9108811e+04 </wgt>
<wgt id='1563'> +8.1439389e+04 </wgt>
<wgt id='1564'> +7.8566268e+04 </wgt>
<wgt id='1565'> +7.5512375e+04 </wgt>
<wgt id='1566'> +8.4003449e+04 </wgt>
<wgt id='1567'> +7.9300410e+04 </wgt>
<wgt id='1568'> +8.0165382e+04 </wgt>
<wgt id='1569'> +8.2705268e+04 </wgt>
<wgt id='1570'> +8.0423193e+04 </wgt>
<wgt id='1571'> +8.2147427e+04 </wgt>
<wgt id='1572'> +8.0348896e+04 </wgt>
<wgt id='1573'> +7.9913970e+04 </wgt>
<wgt id='1574'> +8.1933128e+04 </wgt>
<wgt id='1575'> +8.2344905e+04 </wgt>
<wgt id='1576'> +8.0421059e+04 </wgt>
<wgt id='1577'> +8.6535541e+04 </wgt>
<wgt id='1578'> +8.1235133e+04 </wgt>
<wgt id='1579'> +8.3653336e+04 </wgt>
<wgt id='1580'> +8.3229622e+04 </wgt>
<wgt id='1581'> +7.6221779e+04 </wgt>
<wgt id='1582'> +7.9595217e+04 </wgt>
<wgt id='1583'> +7.7702808e+04 </wgt>
<wgt id='1584'> +8.4930926e+04 </wgt>
<wgt id='1585'> +7.7282799e+04 </wgt>
<wgt id='1586'> +9.7819695e+04 </wgt>
<wgt id='1587'> +7.7564500e+04 </wgt>
<wgt id='1588'> +7.8564229e+04 </wgt>
<wgt id='1589'> +7.9395326e+04 </wgt>
<wgt id='1590'> +7.9890674e+04 </wgt>
<wgt id='1591'> +8.0232796e+04 </wgt>
<wgt id='1592'> +8.1048778e+04 </wgt>
<wgt id='1593'> +6.7851702e+04 </wgt>
<wgt id='1594'> +6.7356154e+04 </wgt>
<wgt id='1595'> +6.7488016e+04 </wgt>
<wgt id='1596'> +6.7430762e+04 </wgt>
<wgt id='1597'> +6.6053572e+04 </wgt>
<wgt id='1598'> +6.9151530e+04 </wgt>
<wgt id='1599'> +6.6221058e+04 </wgt>
<wgt id='1600'> +7.1404478e+04 </wgt>
<wgt id='1601'> +6.4658726e+04 </wgt>
<wgt id='1602'> +7.1363058e+04 </wgt>
<wgt id='1603'> +6.5259690e+04 </wgt>
<wgt id='1604'> +6.8975662e+04 </wgt>
<wgt id='1605'> +6.5478407e+04 </wgt>
<wgt id='1606'> +6.6778017e+04 </wgt>
<wgt id='1607'> +6.8019010e+04 </wgt>
<wgt id='1608'> +6.4273127e+04 </wgt>
<wgt id='1609'> +6.7924592e+04 </wgt>
<wgt id='1610'> +6.5231964e+04 </wgt>
<wgt id='1611'> +7.0597773e+04 </wgt>
<wgt id='1612'> +6.5689454e+04 </wgt>
<wgt id='1613'> +7.1274874e+04 </wgt>
<wgt id='1614'> +6.7376540e+04 </wgt>
<wgt id='1615'> +6.8568519e+04 </wgt>
<wgt id='1616'> +6.6530319e+04 </wgt>
<wgt id='1617'> +6.8404833e+04 </wgt>
<wgt id='1618'> +6.7967437e+04 </wgt>
<wgt id='1619'> +6.7447983e+04 </wgt>
<wgt id='1620'> +6.8828886e+04 </wgt>
<wgt id='1621'> +6.5044974e+04 </wgt>
<wgt id='1622'> +6.5997625e+04 </wgt>
<wgt id='1623'> +6.8595248e+04 </wgt>
<wgt id='1624'> +6.8605829e+04 </wgt>
<wgt id='1625'> +6.4802088e+04 </wgt>
<wgt id='1626'> +6.8032183e+04 </wgt>
<wgt id='1627'> +6.7081140e+04 </wgt>
<wgt id='1628'> +6.9193606e+04 </wgt>
<wgt id='1629'> +6.3953376e+04 </wgt>
<wgt id='1630'> +6.3908355e+04 </wgt>
<wgt id='1631'> +7.2286595e+04 </wgt>
<wgt id='1632'> +6.5115126e+04 </wgt>
<wgt id='1633'> +6.9686284e+04 </wgt>
<wgt id='1634'> +6.3863589e+04 </wgt>
<wgt id='1635'> +7.1799576e+04 </wgt>
<wgt id='1636'> +6.5345005e+04 </wgt>
<wgt id='1637'> +6.7872969e+04 </wgt>
<wgt id='1638'> +6.9095702e+04 </wgt>
<wgt id='1639'> +6.5416805e+04 </wgt>
<wgt id='1640'> +6.7897842e+04 </wgt>
<wgt id='1641'> +6.6186070e+04 </wgt>
<wgt id='1642'> +6.4769494e+04 </wgt>
<wgt id='1643'> +6.8372768e+04 </wgt>
<wgt id='1644'> +6.3871283e+04 </wgt>
<wgt id='1645'> +7.2820517e+04 </wgt>
<wgt id='1646'> +6.3737793e+04 </wgt>
<wgt id='1647'> +6.9329181e+04 </wgt>
<wgt id='1648'> +6.5634929e+04 </wgt>
<wgt id='1649'> +6.9006323e+04 </wgt>
<wgt id='1650'> +6.7379309e+04 </wgt>
<wgt id='1651'> +6.8233443e+04 </wgt>
<wgt id='1652'> +6.7709602e+04 </wgt>
<wgt id='1653'> +6.7815011e+04 </wgt>
<wgt id='1654'> +6.7830833e+04 </wgt>
<wgt id='1655'> +6.7754454e+04 </wgt>
<wgt id='1656'> +7.3090199e+04 </wgt>
<wgt id='1657'> +7.2619175e+04 </wgt>
<wgt id='1658'> +7.2646279e+04 </wgt>
<wgt id='1659'> +7.1763459e+04 </wgt>
<wgt id='1660'> +7.3998584e+04 </wgt>
<wgt id='1661'> +7.1437307e+04 </wgt>
<wgt id='1662'> +7.4135578e+04 </wgt>
<wgt id='1663'> +7.2563878e+04 </wgt>
<wgt id='1664'> +7.2637419e+04 </wgt>
<wgt id='1665'> +7.3110487e+04 </wgt>
<wgt id='1666'> +7.2794264e+04 </wgt>
<wgt id='1667'> +7.0374391e+04 </wgt>
<wgt id='1668'> +7.5056601e+04 </wgt>
<wgt id='1669'> +6.9062360e+04 </wgt>
<wgt id='1670'> +7.8179345e+04 </wgt>
<wgt id='1671'> +7.2732718e+04 </wgt>
<wgt id='1672'> +7.3469471e+04 </wgt>
<wgt id='1673'> +7.5967027e+04 </wgt>
<wgt id='1674'> +7.1125052e+04 </wgt>
<wgt id='1675'> +7.2691364e+04 </wgt>
<wgt id='1676'> +7.2098631e+04 </wgt>
<wgt id='1677'> +7.4661300e+04 </wgt>
<wgt id='1678'> +7.1443464e+04 </wgt>
<wgt id='1679'> +7.7690457e+04 </wgt>
<wgt id='1680'> +6.8246344e+04 </wgt>
<wgt id='1681'> +7.3333188e+04 </wgt>
<wgt id='1682'> +7.2343270e+04 </wgt>
<wgt id='1683'> +7.4410359e+04 </wgt>
<wgt id='1684'> +7.1201894e+04 </wgt>
<wgt id='1685'> +7.4110693e+04 </wgt>
<wgt id='1686'> +7.0764714e+04 </wgt>
<wgt id='1687'> +6.9879730e+04 </wgt>
<wgt id='1688'> +7.7921706e+04 </wgt>
<wgt id='1689'> +7.1223484e+04 </wgt>
<wgt id='1690'> +7.5061365e+04 </wgt>
<wgt id='1691'> +7.2146277e+04 </wgt>
<wgt id='1692'> +7.3807330e+04 </wgt>
<wgt id='1693'> +6.9811495e+04 </wgt>
<wgt id='1694'> +7.5279012e+04 </wgt>
<wgt id='1695'> +7.2279725e+04 </wgt>
<wgt id='1696'> +7.3265851e+04 </wgt>
<wgt id='1697'> +7.2195171e+04 </wgt>
<wgt id='1698'> +7.4077232e+04 </wgt>
<wgt id='1699'> +7.2844076e+04 </wgt>
<wgt id='1700'> +7.1529378e+04 </wgt>
<wgt id='1701'> +7.3359088e+04 </wgt>
<wgt id='1702'> +7.2202526e+04 </wgt>
<wgt id='1703'> +7.4967042e+04 </wgt>
<wgt id='1704'> +7.1782875e+04 </wgt>
<wgt id='1705'> +7.3727922e+04 </wgt>
<wgt id='1706'> +7.1548503e+04 </wgt>
<wgt id='1707'> +7.3788218e+04 </wgt>
<wgt id='1708'> +7.2182656e+04 </wgt>
<wgt id='1709'> +6.9143381e+04 </wgt>
<wgt id='1710'> +7.4639374e+04 </wgt>
<wgt id='1711'> +7.0556500e+04 </wgt>
<wgt id='1712'> +7.4349361e+04 </wgt>
<wgt id='1713'> +7.1949501e+04 </wgt>
<wgt id='1714'> +7.3438023e+04 </wgt>
<wgt id='1715'> +7.5403026e+04 </wgt>
<wgt id='1716'> +6.6607551e+04 </wgt>
<wgt id='1717'> +7.8461162e+04 </wgt>
<wgt id='1718'> +7.8849635e+04 </wgt>
<wgt id='1719'> +7.7963023e+04 </wgt>
<wgt id='1720'> +7.9013432e+04 </wgt>
<wgt id='1721'> +7.7956741e+04 </wgt>
<wgt id='1722'> +7.8338423e+04 </wgt>
<wgt id='1723'> +7.8662311e+04 </wgt>
<wgt id='1724'> +7.6771165e+04 </wgt>
<wgt id='1725'> +7.9835428e+04 </wgt>
<wgt id='1726'> +7.7280855e+04 </wgt>
<wgt id='1727'> +7.9677994e+04 </wgt>
<wgt id='1728'> +7.8759495e+04 </wgt>
<wgt id='1729'> +7.8173319e+04 </wgt>
<wgt id='1730'> +7.8258411e+04 </wgt>
<wgt id='1731'> +7.8605960e+04 </wgt>
<wgt id='1732'> +7.8305004e+04 </wgt>
<wgt id='1733'> +7.8305004e+04 </wgt>
<wgt id='1734'> +7.8503920e+04 </wgt>
<wgt id='1735'> +7.8430739e+04 </wgt>
<wgt id='1736'> +7.8683396e+04 </wgt>
<wgt id='1737'> +7.8158081e+04 </wgt>
<wgt id='1738'> +7.8685412e+04 </wgt>
<wgt id='1739'> +7.8081541e+04 </wgt>
<wgt id='1740'> +7.8309058e+04 </wgt>
<wgt id='1741'> +7.8827442e+04 </wgt>
<wgt id='1742'> +7.8680925e+04 </wgt>
<wgt id='1743'> +7.8221277e+04 </wgt>
<wgt id='1744'> +7.7992941e+04 </wgt>
<wgt id='1745'> +7.9724103e+04 </wgt>
<wgt id='1746'> +7.8549055e+04 </wgt>
<wgt id='1747'> +7.8405680e+04 </wgt>
<wgt id='1748'> +7.8341496e+04 </wgt>
<wgt id='1749'> +7.8759184e+04 </wgt>
<wgt id='1750'> +7.8379508e+04 </wgt>
<wgt id='1751'> +7.8549199e+04 </wgt>
<wgt id='1752'> +7.8283865e+04 </wgt>
<wgt id='1753'> +7.8706683e+04 </wgt>
<wgt id='1754'> +7.8568760e+04 </wgt>
<wgt id='1755'> +7.8401949e+04 </wgt>
<wgt id='1756'> +7.8953164e+04 </wgt>
<wgt id='1757'> +7.7231545e+04 </wgt>
<wgt id='1758'> +7.8567594e+04 </wgt>
<wgt id='1759'> +7.8368035e+04 </wgt>
<wgt id='1760'> +7.8256587e+04 </wgt>
<wgt id='1761'> +7.8710811e+04 </wgt>
<wgt id='1762'> +7.8508245e+04 </wgt>
<wgt id='1763'> +7.7882743e+04 </wgt>
<wgt id='1764'> +7.8558678e+04 </wgt>
<wgt id='1765'> +7.8015045e+04 </wgt>
<wgt id='1766'> +7.8260374e+04 </wgt>
<wgt id='1767'> +7.8726085e+04 </wgt>
<wgt id='1768'> +7.8443344e+04 </wgt>
<wgt id='1769'> +7.8433746e+04 </wgt>
<wgt id='1770'> +7.8246228e+04 </wgt>
<wgt id='1771'> +7.8390788e+04 </wgt>
<wgt id='1772'> +7.8705856e+04 </wgt>
<wgt id='1773'> +7.8263457e+04 </wgt>
<wgt id='1774'> +8.0459162e+04 </wgt>
<wgt id='1775'> +7.7156670e+04 </wgt>
<wgt id='1776'> +7.9274646e+04 </wgt>
<wgt id='1777'> +7.8163110e+04 </wgt>
<wgt id='1778'> +7.8664286e+04 </wgt>
<wgt id='1779'> +7.8265990e+04 </wgt>
<wgt id='1780'> +7.6860084e+04 </wgt>
<wgt id='1781'> +7.7235085e+04 </wgt>
<wgt id='1782'> +7.8461162e+04 </wgt>
<wgt id='1783'> +7.8324423e+04 </wgt>
<wgt id='1784'> +7.5286888e+04 </wgt>
<wgt id='1785'> +7.6229359e+04 </wgt>
<wgt id='1786'> +7.9991914e+04 </wgt>
<wgt id='1787'> +7.5275348e+04 </wgt>
<wgt id='1788'> +7.4904493e+04 </wgt>
<wgt id='1789'> +7.5166069e+04 </wgt>
<wgt id='1790'> +7.5623178e+04 </wgt>
<wgt id='1791'> +7.5544900e+04 </wgt>
<wgt id='1792'> +7.5803553e+04 </wgt>
<wgt id='1793'> +7.5866156e+04 </wgt>
<wgt id='1794'> +7.4451519e+04 </wgt>
<wgt id='1795'> +7.4797430e+04 </wgt>
<wgt id='1796'> +7.5760315e+04 </wgt>
<wgt id='1797'> +7.2898642e+04 </wgt>
<wgt id='1798'> +7.5513873e+04 </wgt>
<wgt id='1799'> +7.4694433e+04 </wgt>
<wgt id='1800'> +7.3194403e+04 </wgt>
<wgt id='1801'> +7.5196720e+04 </wgt>
<wgt id='1802'> +7.5300590e+04 </wgt>
<wgt id='1803'> +7.4309361e+04 </wgt>
<wgt id='1804'> +7.5683857e+04 </wgt>
<wgt id='1805'> +7.6796520e+04 </wgt>
<wgt id='1806'> +7.4221240e+04 </wgt>
<wgt id='1807'> +7.5542987e+04 </wgt>
<wgt id='1808'> +7.5011551e+04 </wgt>
<wgt id='1809'> +7.5721918e+04 </wgt>
<wgt id='1810'> +7.5818636e+04 </wgt>
<wgt id='1811'> +7.5576794e+04 </wgt>
<wgt id='1812'> +7.6656680e+04 </wgt>
<wgt id='1813'> +7.8771245e+04 </wgt>
<wgt id='1814'> +7.5585833e+04 </wgt>
<wgt id='1815'> +7.5310628e+04 </wgt>
<wgt id='1816'> +7.5463292e+04 </wgt>
<wgt id='1817'> +7.5325442e+04 </wgt>
<wgt id='1818'> +7.5412322e+04 </wgt>
<wgt id='1819'> +7.5410364e+04 </wgt>
<wgt id='1820'> +7.4853295e+04 </wgt>
<wgt id='1821'> +7.5105077e+04 </wgt>
<wgt id='1822'> +7.5354341e+04 </wgt>
<wgt id='1823'> +7.3508940e+04 </wgt>
<wgt id='1824'> +7.5422359e+04 </wgt>
<wgt id='1825'> +7.4800858e+04 </wgt>
<wgt id='1826'> +7.5973916e+04 </wgt>
<wgt id='1827'> +7.4631768e+04 </wgt>
<wgt id='1828'> +7.4667684e+04 </wgt>
<wgt id='1829'> +7.4583560e+04 </wgt>
<wgt id='1830'> +7.4556121e+04 </wgt>
<wgt id='1831'> +7.4695106e+04 </wgt>
<wgt id='1832'> +7.4760207e+04 </wgt>
<wgt id='1833'> +7.4491167e+04 </wgt>
<wgt id='1834'> +7.4624033e+04 </wgt>
<wgt id='1835'> +7.4625670e+04 </wgt>
<wgt id='1836'> +7.4739196e+04 </wgt>
<wgt id='1837'> +7.4515228e+04 </wgt>
<wgt id='1838'> +7.4793091e+04 </wgt>
<wgt id='1839'> +7.4459230e+04 </wgt>
<wgt id='1840'> +7.4449757e+04 </wgt>
<wgt id='1841'> +7.4798075e+04 </wgt>
<wgt id='1842'> +7.4476168e+04 </wgt>
<wgt id='1843'> +7.4655622e+04 </wgt>
<wgt id='1844'> +7.4717224e+04 </wgt>
<wgt id='1845'> +7.4523148e+04 </wgt>
<wgt id='1846'> +7.4407702e+04 </wgt>
<wgt id='1847'> +7.4843392e+04 </wgt>
<wgt id='1848'> +7.4468297e+04 </wgt>
<wgt id='1849'> +7.4697569e+04 </wgt>
<wgt id='1850'> +7.5324822e+04 </wgt>
<wgt id='1851'> +7.3945093e+04 </wgt>
<wgt id='1852'> +7.5481087e+04 </wgt>
<wgt id='1853'> +7.3697130e+04 </wgt>
<wgt id='1854'> +7.5417714e+04 </wgt>
<wgt id='1855'> +7.3951730e+04 </wgt>
<wgt id='1856'> +7.4548683e+04 </wgt>
<wgt id='1857'> +7.4537550e+04 </wgt>
<wgt id='1858'> +7.4547185e+04 </wgt>
<wgt id='1859'> +7.4482386e+04 </wgt>
<wgt id='1860'> +7.4553849e+04 </wgt>
<wgt id='1861'> +7.4899766e+04 </wgt>
<wgt id='1862'> +7.4985632e+04 </wgt>
<wgt id='1863'> +7.4014981e+04 </wgt>
<wgt id='1864'> +7.4749311e+04 </wgt>
<wgt id='1865'> +7.4616373e+04 </wgt>
<wgt id='1866'> +7.4405848e+04 </wgt>
<wgt id='1867'> +7.4545503e+04 </wgt>
<wgt id='1868'> +7.4391451e+04 </wgt>
<wgt id='1869'> +7.4699059e+04 </wgt>
<wgt id='1870'> +7.4569061e+04 </wgt>
<wgt id='1871'> +7.4647975e+04 </wgt>
<wgt id='1872'> +7.4568721e+04 </wgt>
<wgt id='1873'> +7.4553445e+04 </wgt>
<wgt id='1874'> +7.4554035e+04 </wgt>
<wgt id='1875'> +7.4677255e+04 </wgt>
<wgt id='1876'> +7.4272363e+04 </wgt>
<wgt id='1877'> +7.4808843e+04 </wgt>
<wgt id='1878'> +7.4206989e+04 </wgt>
<wgt id='1879'> +7.4681900e+04 </wgt>
<wgt id='1880'> +7.4799324e+04 </wgt>
<wgt id='1881'> +7.4922911e+04 </wgt>
<wgt id='1882'> +7.4571018e+04 </wgt>
<wgt id='1883'> +7.4439988e+04 </wgt>
<wgt id='1884'> +7.4607968e+04 </wgt>
<wgt id='1885'> +7.3785652e+04 </wgt>
<wgt id='1886'> +3.4917017e+04 </wgt>
<wgt id='1887'> +4.8542431e+04 </wgt>
<wgt id='1888'> +5.6150493e+04 </wgt>
<wgt id='1889'> +6.3016362e+04 </wgt>
</rwgt>
</event>
<event npLO=" -1 " npNLO=" 0 ">
 6      0 +7.4519530e+04 3.00000000e+01 7.55820760e-03 1.21013190e-01
       21 -1    0    0  502  501 +0.0000000000e+00 +0.0000000000e+00 +8.9750409070e+01 8.9750409070e+01 0.0000000000e+00 0.0000e+00 1.0000e+00
        2 -1    0    0  501    0 +0.0000000000e+00 +0.0000000000e+00 -2.5558746365e+01 2.5558746365e+01 0.0000000000e+00 0.0000e+00 -1.0000e+00
       24  2    1    2    0    0 +9.3663985589e+00 -1.3061428287e+01 +4.2335975461e+01 8.8179809778e+01 7.5663820306e+01 0.0000e+00 0.0000e+00
      -11  1    3    3    0    0 +1.5901021092e+01 +1.0572841155e+01 +5.6653422343e+01 5.9784928744e+01 0.0000000000e+00 0.0000e+00 1.0000e+00
       12  1    3    3    0    0 -6.5346225328e+00 -2.3634269441e+01 -1.4317446882e+01 2.8394881033e+01 0.0000000000e+00 0.0000e+00 -1.0000e+00
        1  1    1    2  502    0 -9.3663985589e+00 +1.3061428287e+01 +2.1855687245e+01 2.7129345658e+01 0.0000000000e+00 0.0000e+00 -1.0000e+00
#aMCatNLO 2  0  0  1  2 0.18867731E+02 0.00000000E+00 -9  5  0 0.00000000E+00 0.00000000E+00 0.00000000E+00 0.00000000E+00 0.00000000E+00
<rwgt>
<wgt id='1001'> +7.4519530e+04 </wgt>
<wgt id='1002'> +6.7299878e+04 </wgt>
<wgt id='1003'> +8.3528140e+04 </wgt>
<wgt id='1004'> +8.1004441e+04 </wgt>
<wgt id='1005'> +7.3156511e+04 </wgt>
<wgt id='1006'> +9.0797004e+04 </wgt>
<wgt id='1007'> +6.6816523e+04 </wgt>
<wgt id='1008'> +6.0343157e+04 </wgt>
<wgt id='1009'> +7.4893921e+04 </wgt>
<wgt id='1010'> +7.4519530e+04 </wgt>
<wgt id='1011'> +7.4483445e+04 </wgt>
<wgt id='1012'> +7.4406061e+04 </wgt>
<wgt id='1013'> +7.4497450e+04 </wgt>
<wgt id='1014'> +7.4864050e+04 </wgt>
<wgt id='1015'> +7.4460414e+04 </wgt>
<wgt id='1016'> +7.4658686e+04 </wgt>
<wgt id='1017'> +7.5013718e+04 </wgt>
<wgt id='1018'> +7.4846560e+04 </wgt>
<wgt id='1019'> +7.4670079e+04 </wgt>
<wgt id='1020'> +7.4384464e+04 </wgt>
<wgt id='1021'> +7.4151758e+04 </wgt>
<wgt id='1022'> +7.4791128e+04 </wgt>
<wgt id='1023'> +7.4512794e+04 </wgt>
<wgt id='1024'> +7.4523265e+04 </wgt>
<wgt id='1025'> +7.4713935e+04 </wgt>
<wgt id='1026'> +7.4238393e+04 </wgt>
<wgt id='1027'> +7.4308920e+04 </wgt>
<wgt id='1028'> +7.4457002e+04 </wgt>
<wgt id='1029'> +7.4598007e+04 </wgt>
<wgt id='1030'> +7.4326623e+04 </wgt>
<wgt id='1031'> +7.4645811e+04 </wgt>
<wgt id='1032'> +7.4692152e+04 </wgt>
<wgt id='1033'> +7.4344108e+04 </wgt>
<wgt id='1034'> +7.4259615e+04 </wgt>
<wgt id='1035'> +7.4462067e+04 </wgt>
<wgt id='1036'> +7.4361189e+04 </wgt>
<wgt id='1037'> +7.4789145e+04 </wgt>
<wgt id='1038'> +7.4532416e+04 </wgt>
<wgt id='1039'> +7.4443416e+04 </wgt>
<wgt id='1040'> +7.4694052e+04 </wgt>
<wgt id='1041'> +7.4460613e+04 </wgt>
<wgt id='1042'> +7.4378862e+04 </wgt>
<wgt id='1043'> +7.4510395e+04 </wgt>
<wgt id='1044'> +7.4478481e+04 </wgt>
<wgt id='1045'> +7.4525566e+04 </wgt>
<wgt id='1046'> +7.4767760e+04 </wgt>
<wgt id='1047'> +7.4435063e+04 </wgt>
<wgt id='1048'> +7.4677965e+04 </wgt>
<wgt id='1049'> +7.4606450e+04 </wgt>
<wgt id='1050'> +7.4598566e+04 </wgt>
<wgt id='1051'> +7.4682570e+04 </wgt>
<wgt id='1052'> +7.4640249e+04 </wgt>
<wgt id='1053'> +7.4407316e+04 </wgt>
<wgt id='1054'> +7.4525225e+04 </wgt>
<wgt id='1055'> +7.4591121e+04 </wgt>
<wgt id='1056'> +7.4572853e+04 </wgt>
<wgt id='1057'> +7.4457666e+04 </wgt>
<wgt id='1058'> +7.4515877e+04 </wgt>
<wgt id='1059'> +7.4495961e+04 </wgt>
<wgt id='1060'> +7.4513281e+04 </wgt>
<wgt id='1061'> +7.4521527e+04 </wgt>
<wgt id='1062'> +7.4402175e+04 </wgt>
<wgt id='1063'> +7.4516690e+04 </wgt>
<wgt id='1064'> +7.4553484e+04 </wgt>
<wgt id='1065'> +7.4569966e+04 </wgt>
<wgt id='1066'> +7.4524906e+04 </wgt>
<wgt id='1067'> +7.4499236e+04 </wgt>
<wgt id='1068'> +7.4360274e+04 </wgt>
<wgt id='1069'> +7.4636273e+04 </wgt>
<wgt id='1070'> +7.4563336e+04 </wgt>
<wgt id='1071'> +7.4558148e+04 </wgt>
<wgt id='1072'> +7.4590769e+04 </wgt>
<wgt id='1073'> +7.4517724e+04 </wgt>
<wgt id='1074'> +7.4497024e+04 </wgt>
<wgt id='1075'> +7.4559952e+04 </wgt>
<wgt id='1076'> +7.4476906e+04 </wgt>
<wgt id='1077'> +7.4578272e+04 </wgt>
<wgt id='1078'> +7.4522879e+04 </wgt>
<wgt id='1079'> +7.4532456e+04 </wgt>
<wgt id='1080'> +7.4546623e+04 </wgt>
<wgt id='1081'> +7.4533635e+04 </wgt>
<wgt id='1082'> +7.4484418e+04 </wgt>
<wgt id='1083'> +7.4564376e+04 </wgt>
<wgt id='1084'> +7.4552482e+04 </wgt>
<wgt id='1085'> +7.4508796e+04 </wgt>
<wgt id='1086'> +7.4559851e+04 </wgt>
<wgt id='1087'> +7.4515274e+04 </wgt>
<wgt id='1088'> +7.4534227e+04 </wgt>
<wgt id='1089'> +7.4522660e+04 </wgt>
<wgt id='1090'> +7.4525686e+04 </wgt>
<wgt id='1091'> +7.4527641e+04 </wgt>
<wgt id='1092'> +7.4526105e+04 </wgt>
<wgt id='1093'> +7.4535317e+04 </wgt>
<wgt id='1094'> +7.4531051e+04 </wgt>
<wgt id='1095'> +7.4529401e+04 </wgt>
<wgt id='1096'> +7.4514095e+04 </wgt>
<wgt id='1097'> +7.4520075e+04 </wgt>
<wgt id='1098'> +7.4523830e+04 </wgt>
<wgt id='1099'> +7.4494390e+04 </wgt>
<wgt id='1100'> +7.4524633e+04 </wgt>
<wgt id='1101'> +7.4510386e+04 </wgt>
<wgt id='1102'> +7.4515113e+04 </wgt>
<wgt id='1103'> +7.4492246e+04 </wgt>
<wgt id='1104'> +7.4518933e+04 </wgt>
<wgt id='1105'> +7.4530561e+04 </wgt>
<wgt id='1106'> +7.4519543e+04 </wgt>
<wgt id='1107'> +7.4530491e+04 </wgt>
<wgt id='1108'> +7.4500362e+04 </wgt>
<wgt id='1109'> +7.4510250e+04 </wgt>
<wgt id='1110'> +7.4519532e+04 </wgt>
<wgt id='1111'> +7.3548795e+04 </wgt>
<wgt id='1112'> +7.5251350e+04 </wgt>
<wgt id='1113'> +7.4519532e+04 </wgt>
<wgt id='1114'> +7.5015613e+04 </wgt>
<wgt id='1115'> +7.3106227e+04 </wgt>
<wgt id='1116'> +7.4215398e+04 </wgt>
<wgt id='1117'> +7.4126539e+04 </wgt>
<wgt id='1118'> +7.5496701e+04 </wgt>
<wgt id='1119'> +7.5414098e+04 </wgt>
<wgt id='1120'> +7.3579914e+04 </wgt>
<wgt id='1121'> +7.3055250e+04 </wgt>
<wgt id='1122'> +7.3496465e+04 </wgt>
<wgt id='1123'> +7.5507457e+04 </wgt>
<wgt id='1124'> +7.6131827e+04 </wgt>
<wgt id='1125'> +7.2032375e+04 </wgt>
<wgt id='1126'> +7.4174701e+04 </wgt>
<wgt id='1127'> +7.4563809e+04 </wgt>
<wgt id='1128'> +7.5603770e+04 </wgt>
<wgt id='1129'> +7.5275237e+04 </wgt>
<wgt id='1130'> +7.6244211e+04 </wgt>
<wgt id='1131'> +7.3651081e+04 </wgt>
<wgt id='1132'> +7.4271791e+04 </wgt>
<wgt id='1133'> +7.4431537e+04 </wgt>
<wgt id='1134'> +7.2141712e+04 </wgt>
<wgt id='1135'> +7.5004270e+04 </wgt>
<wgt id='1136'> +7.4453509e+04 </wgt>
<wgt id='1137'> +7.3099294e+04 </wgt>
<wgt id='1138'> +7.2012482e+04 </wgt>
<wgt id='1139'> +7.5507719e+04 </wgt>
<wgt id='1140'> +7.5918107e+04 </wgt>
<wgt id='1141'> +7.3096492e+04 </wgt>
<wgt id='1142'> +7.5321010e+04 </wgt>
<wgt id='1143'> +7.5604107e+04 </wgt>
<wgt id='1144'> +7.5108614e+04 </wgt>
<wgt id='1145'> +7.3473156e+04 </wgt>
<wgt id='1146'> +7.4002376e+04 </wgt>
<wgt id='1147'> +7.2469948e+04 </wgt>
<wgt id='1148'> +7.7470703e+04 </wgt>
<wgt id='1149'> +7.3881912e+04 </wgt>
<wgt id='1150'> +7.5142420e+04 </wgt>
<wgt id='1151'> +7.4313288e+04 </wgt>
<wgt id='1152'> +7.4641457e+04 </wgt>
<wgt id='1153'> +7.4395874e+04 </wgt>
<wgt id='1154'> +7.5562848e+04 </wgt>
<wgt id='1155'> +7.3016824e+04 </wgt>
<wgt id='1156'> +7.5320445e+04 </wgt>
<wgt id='1157'> +7.4453932e+04 </wgt>
<wgt id='1158'> +7.5033233e+04 </wgt>
<wgt id='1159'> +7.5372211e+04 </wgt>
<wgt id='1160'> +7.3290266e+04 </wgt>
<wgt id='1161'> +7.3833091e+04 </wgt>
<wgt id='1162'> +7.5801584e+04 </wgt>
<wgt id='1163'> +7.6130205e+04 </wgt>
<wgt id='1164'> +7.4120957e+04 </wgt>
<wgt id='1165'> +7.2851969e+04 </wgt>
<wgt id='1166'> +7.5146404e+04 </wgt>
<wgt id='1167'> +7.3451623e+04 </wgt>
<wgt id='1168'> +7.4269334e+04 </wgt>
<wgt id='1169'> +7.4460080e+04 </wgt>
<wgt id='1170'> +7.4796153e+04 </wgt>
<wgt id='1171'> +7.3055465e+04 </wgt>
<wgt id='1172'> +7.6718549e+04 </wgt>
<wgt id='1173'> +7.5111551e+04 </wgt>
<wgt id='1174'> +7.4655877e+04 </wgt>
<wgt id='1175'> +7.3690001e+04 </wgt>
<wgt id='1176'> +7.6101144e+04 </wgt>
<wgt id='1177'> +7.4042786e+04 </wgt>
<wgt id='1178'> +7.4367530e+04 </wgt>
<wgt id='1179'> +7.5874962e+04 </wgt>
<wgt id='1180'> +7.4523429e+04 </wgt>
<wgt id='1181'> +7.5492825e+04 </wgt>
<wgt id='1182'> +7.3024179e+04 </wgt>
<wgt id='1183'> +7.2206330e+04 </wgt>
<wgt id='1184'> +7.5467283e+04 </wgt>
<wgt id='1185'> +7.8187553e+04 </wgt>
<wgt id='1186'> +7.3185238e+04 </wgt>
<wgt id='1187'> +7.5282856e+04 </wgt>
<wgt id='1188'> +7.4999730e+04 </wgt>
<wgt id='1189'> +7.7954696e+04 </wgt>
<wgt id='1190'> +7.2551868e+04 </wgt>
<wgt id='1191'> +7.4000224e+04 </wgt>
<wgt id='1192'> +7.4484978e+04 </wgt>
<wgt id='1193'> +7.5806329e+04 </wgt>
<wgt id='1194'> +7.2928282e+04 </wgt>
<wgt id='1195'> +7.5275237e+04 </wgt>
<wgt id='1196'> +7.4790939e+04 </wgt>
<wgt id='1197'> +7.4508542e+04 </wgt>
<wgt id='1198'> +7.4189031e+04 </wgt>
<wgt id='1199'> +7.3704219e+04 </wgt>
<wgt id='1200'> +7.4721084e+04 </wgt>
<wgt id='1201'> +7.6275533e+04 </wgt>
<wgt id='1202'> +7.4034619e+04 </wgt>
<wgt id='1203'> +7.3233405e+04 </wgt>
<wgt id='1204'> +7.3257270e+04 </wgt>
<wgt id='1205'> +7.5659293e+04 </wgt>
<wgt id='1206'> +7.5445845e+04 </wgt>
<wgt id='1207'> +7.5380971e+04 </wgt>
<wgt id='1208'> +7.2292861e+04 </wgt>
<wgt id='1209'> +7.3834844e+04 </wgt>
<wgt id='1210'> +7.5128771e+04 </wgt>
<wgt id='1211'> +7.4909011e+04 </wgt>
<wgt id='1212'> +7.4307463e+04 </wgt>
<wgt id='1213'> +7.3903734e+04 </wgt>
<wgt id='1214'> +7.4478644e+04 </wgt>
<wgt id='1215'> +7.0902162e+04 </wgt>
<wgt id='1216'> +7.1280063e+04 </wgt>
<wgt id='1217'> +7.1921970e+04 </wgt>
<wgt id='1218'> +7.2971492e+04 </wgt>
<wgt id='1219'> +7.4182588e+04 </wgt>
<wgt id='1220'> +7.5043195e+04 </wgt>
<wgt id='1221'> +7.5764874e+04 </wgt>
<wgt id='1222'> +7.6667247e+04 </wgt>
<wgt id='1223'> +7.4369626e+04 </wgt>
<wgt id='1224'> +7.4473105e+04 </wgt>
<wgt id='1225'> +7.4259810e+04 </wgt>
<wgt id='1226'> +7.4521094e+04 </wgt>
<wgt id='1227'> +7.4770051e+04 </wgt>
<wgt id='1228'> +7.4598272e+04 </wgt>
<wgt id='1229'> +7.4320958e+04 </wgt>
<wgt id='1230'> +7.4509293e+04 </wgt>
<wgt id='1231'> +7.4064740e+04 </wgt>
<wgt id='1232'> +7.4442824e+04 </wgt>
<wgt id='1233'> +7.3833159e+04 </wgt>
<wgt id='1234'> +7.4442086e+04 </wgt>
<wgt id='1235'> +7.4804625e+04 </wgt>
<wgt id='1236'> +7.4017646e+04 </wgt>
<wgt id='1237'> +7.4773093e+04 </wgt>
<wgt id='1238'> +7.4258077e+04 </wgt>
<wgt id='1239'> +7.4453211e+04 </wgt>
<wgt id='1240'> +7.4511970e+04 </wgt>
<wgt id='1241'> +7.4553694e+04 </wgt>
<wgt id='1242'> +7.4232822e+04 </wgt>
<wgt id='1243'> +7.4135713e+04 </wgt>
<wgt id='1244'> +7.4521957e+04 </wgt>
<wgt id='1245'> +7.4439905e+04 </wgt>
<wgt id='1246'> +7.4371768e+04 </wgt>
<wgt id='1247'> +7.4524884e+04 </wgt>
<wgt id='1248'> +7.4155126e+04 </wgt>
<wgt id='1249'> +7.4332389e+04 </wgt>
<wgt id='1250'> +7.4519780e+04 </wgt>
<wgt id='1251'> +7.4240433e+04 </wgt>
<wgt id='1252'> +7.4732851e+04 </wgt>
<wgt id='1253'> +7.4680933e+04 </wgt>
<wgt id='1254'> +7.4271368e+04 </wgt>
<wgt id='1255'> +7.4288662e+04 </wgt>
<wgt id='1256'> +7.4329080e+04 </wgt>
<wgt id='1257'> +7.4571764e+04 </wgt>
<wgt id='1258'> +7.4370300e+04 </wgt>
<wgt id='1259'> +7.4353698e+04 </wgt>
<wgt id='1260'> +7.4335366e+04 </wgt>
<wgt id='1261'> +7.4407040e+04 </wgt>
<wgt id='1262'> +7.4212366e+04 </wgt>
<wgt id='1263'> +7.4289871e+04 </wgt>
<wgt id='1264'> +7.4280201e+04 </wgt>
<wgt id='1265'> +7.4386884e+04 </wgt>
<wgt id='1266'> +7.4309972e+04 </wgt>
<wgt id='1267'> +7.4330372e+04 </wgt>
<wgt id='1268'> +7.4492123e+04 </wgt>
<wgt id='1269'> +7.4341603e+04 </wgt>
<wgt id='1270'> +7.4283990e+04 </wgt>
<wgt id='1271'> +7.4262833e+04 </wgt>
<wgt id='1272'> +7.4339424e+04 </wgt>
<wgt id='1273'> +7.4401489e+04 </wgt>
<wgt id='1274'> +7.4482688e+04 </wgt>
<wgt id='1275'> +7.4299037e+04 </wgt>
<wgt id='1276'> +7.4390090e+04 </wgt>
<wgt id='1277'> +7.4329293e+04 </wgt>
<wgt id='1278'> +7.4315151e+04 </wgt>
<wgt id='1279'> +7.4320548e+04 </wgt>
<wgt id='1280'> +7.4380726e+04 </wgt>
<wgt id='1281'> +7.4411092e+04 </wgt>
<wgt id='1282'> +7.4381803e+04 </wgt>
<wgt id='1283'> +7.4358079e+04 </wgt>
<wgt id='1284'> +7.4340300e+04 </wgt>
<wgt id='1285'> +7.4358060e+04 </wgt>
<wgt id='1286'> +7.4387523e+04 </wgt>
<wgt id='1287'> +7.4310882e+04 </wgt>
<wgt id='1288'> +7.4278615e+04 </wgt>
<wgt id='1289'> +7.4453133e+04 </wgt>
<wgt id='1290'> +7.4379837e+04 </wgt>
<wgt id='1291'> +7.4323135e+04 </wgt>
<wgt id='1292'> +7.4470566e+04 </wgt>
<wgt id='1293'> +7.4319299e+04 </wgt>
<wgt id='1294'> +7.4388561e+04 </wgt>
<wgt id='1295'> +7.4377757e+04 </wgt>
<wgt id='1296'> +7.4410685e+04 </wgt>
<wgt id='1297'> +7.4400462e+04 </wgt>
<wgt id='1298'> +7.4356801e+04 </wgt>
<wgt id='1299'> +7.4349046e+04 </wgt>
<wgt id='1300'> +7.4374388e+04 </wgt>
<wgt id='1301'> +7.4403382e+04 </wgt>
<wgt id='1302'> +7.4361616e+04 </wgt>
<wgt id='1303'> +7.4390752e+04 </wgt>
<wgt id='1304'> +7.4364536e+04 </wgt>
<wgt id='1305'> +7.4387778e+04 </wgt>
<wgt id='1306'> +7.4351791e+04 </wgt>
<wgt id='1307'> +7.4376927e+04 </wgt>
<wgt id='1308'> +7.4365648e+04 </wgt>
<wgt id='1309'> +7.4387505e+04 </wgt>
<wgt id='1310'> +7.4362173e+04 </wgt>
<wgt id='1311'> +7.4400220e+04 </wgt>
<wgt id='1312'> +7.4379894e+04 </wgt>
<wgt id='1313'> +7.4374810e+04 </wgt>
<wgt id='1314'> +7.4351232e+04 </wgt>
<wgt id='1315'> +7.4381648e+04 </wgt>
<wgt id='1316'> +7.4327588e+04 </wgt>
<wgt id='1317'> +7.4392893e+04 </wgt>
<wgt id='1318'> +7.4379501e+04 </wgt>
<wgt id='1319'> +7.4344150e+04 </wgt>
<wgt id='1320'> +7.4358944e+04 </wgt>
<wgt id='1321'> +7.4377983e+04 </wgt>
<wgt id='1322'> +7.4348911e+04 </wgt>
<wgt id='1323'> +7.4363316e+04 </wgt>
<wgt id='1324'> +7.3706158e+04 </wgt>
<wgt id='1325'> +7.5299092e+04 </wgt>
<wgt id='1326'> +7.2611370e+04 </wgt>
<wgt id='1327'> +7.0754107e+04 </wgt>
<wgt id='1328'> +7.3944319e+04 </wgt>
<wgt id='1329'> +7.4281484e+04 </wgt>
<wgt id='1330'> +7.3806637e+04 </wgt>
<wgt id='1331'> +7.4113308e+04 </wgt>
<wgt id='1332'> +7.4135646e+04 </wgt>
<wgt id='1333'> +7.3785529e+04 </wgt>
<wgt id='1334'> +7.4649450e+04 </wgt>
<wgt id='1335'> +7.3271432e+04 </wgt>
<wgt id='1336'> +7.5101987e+04 </wgt>
<wgt id='1337'> +7.3463970e+04 </wgt>
<wgt id='1338'> +7.4831230e+04 </wgt>
<wgt id='1339'> +7.4955170e+04 </wgt>
<wgt id='1340'> +7.3307333e+04 </wgt>
<wgt id='1341'> +7.3374287e+04 </wgt>
<wgt id='1342'> +7.3393309e+04 </wgt>
<wgt id='1343'> +7.4623537e+04 </wgt>
<wgt id='1344'> +7.3492867e+04 </wgt>
<wgt id='1345'> +7.4791264e+04 </wgt>
<wgt id='1346'> +7.2689589e+04 </wgt>
<wgt id='1347'> +7.5977828e+04 </wgt>
<wgt id='1348'> +7.4022767e+04 </wgt>
<wgt id='1349'> +7.4738599e+04 </wgt>
<wgt id='1350'> +7.4987766e+04 </wgt>
<wgt id='1351'> +7.5291115e+04 </wgt>
<wgt id='1352'> +7.3090910e+04 </wgt>
<wgt id='1353'> +7.5073200e+04 </wgt>
<wgt id='1354'> +7.4208242e+04 </wgt>
<wgt id='1355'> +7.3361335e+04 </wgt>
<wgt id='1356'> +7.3258669e+04 </wgt>
<wgt id='1357'> +7.3702296e+04 </wgt>
<wgt id='1358'> +7.4150233e+04 </wgt>
<wgt id='1359'> +7.3642984e+04 </wgt>
<wgt id='1360'> +7.5002154e+04 </wgt>
<wgt id='1361'> +7.4362331e+04 </wgt>
<wgt id='1362'> +7.5196459e+04 </wgt>
<wgt id='1363'> +7.4732891e+04 </wgt>
<wgt id='1364'> +7.4312852e+04 </wgt>
<wgt id='1365'> +7.2501872e+04 </wgt>
<wgt id='1366'> +7.3569906e+04 </wgt>
<wgt id='1367'> +7.4418289e+04 </wgt>
<wgt id='1368'> +7.5574709e+04 </wgt>
<wgt id='1369'> +7.3110803e+04 </wgt>
<wgt id='1370'> +7.3236853e+04 </wgt>
<wgt id='1371'> +7.3551674e+04 </wgt>
<wgt id='1372'> +7.4535649e+04 </wgt>
<wgt id='1373'> +7.3212920e+04 </wgt>
<wgt id='1374'> +7.4096170e+04 </wgt>
<wgt id='1375'> +7.3407675e+04 </wgt>
<wgt id='1376'> +7.3310148e+04 </wgt>
<wgt id='1377'> +7.3706543e+04 </wgt>
<wgt id='1378'> +7.5140917e+04 </wgt>
<wgt id='1379'> +7.4499602e+04 </wgt>
<wgt id='1380'> +7.3224768e+04 </wgt>
<wgt id='1381'> +7.4161982e+04 </wgt>
<wgt id='1382'> +7.3608507e+04 </wgt>
<wgt id='1383'> +7.4279121e+04 </wgt>
<wgt id='1384'> +7.3577686e+04 </wgt>
<wgt id='1385'> +7.2910320e+04 </wgt>
<wgt id='1386'> +7.4024635e+04 </wgt>
<wgt id='1387'> +7.2890451e+04 </wgt>
<wgt id='1388'> +7.3159220e+04 </wgt>
<wgt id='1389'> +7.3397278e+04 </wgt>
<wgt id='1390'> +7.1488428e+04 </wgt>
<wgt id='1391'> +7.1686929e+04 </wgt>
<wgt id='1392'> +7.4285747e+04 </wgt>
<wgt id='1393'> +7.4153508e+04 </wgt>
<wgt id='1394'> +7.2501872e+04 </wgt>
<wgt id='1395'> +7.4687277e+04 </wgt>
<wgt id='1396'> +7.5792220e+04 </wgt>
<wgt id='1397'> +7.4322863e+04 </wgt>
<wgt id='1398'> +7.4638523e+04 </wgt>
<wgt id='1399'> +7.4389442e+04 </wgt>
<wgt id='1400'> +7.5056617e+04 </wgt>
<wgt id='1401'> +7.4377678e+04 </wgt>
<wgt id='1402'> +7.4298339e+04 </wgt>
<wgt id='1403'> +7.4371018e+04 </wgt>
<wgt id='1404'> +7.4392948e+04 </wgt>
<wgt id='1405'> +7.1781281e+04 </wgt>
<wgt id='1406'> +7.4317912e+04 </wgt>
<wgt id='1407'> +7.3978172e+04 </wgt>
<wgt id='1408'> +7.4225335e+04 </wgt>
<wgt id='1409'> +7.3574217e+04 </wgt>
<wgt id='1410'> +7.3912914e+04 </wgt>
<wgt id='1411'> +7.3717981e+04 </wgt>
<wgt id='1412'> +7.4021476e+04 </wgt>
<wgt id='1413'> +7.3857384e+04 </wgt>
<wgt id='1414'> +7.2787296e+04 </wgt>
<wgt id='1415'> +7.2160769e+04 </wgt>
<wgt id='1416'> +7.3837002e+04 </wgt>
<wgt id='1417'> +7.5516863e+04 </wgt>
<wgt id='1418'> +7.4454328e+04 </wgt>
<wgt id='1419'> +7.3576045e+04 </wgt>
<wgt id='1420'> +7.3175426e+04 </wgt>
<wgt id='1421'> +7.3999055e+04 </wgt>
<wgt id='1422'> +7.3344239e+04 </wgt>
<wgt id='1423'> +7.2019464e+04 </wgt>
<wgt id='1424'> +7.4527330e+04 </wgt>
<wgt id='1425'> +7.4115634e+04 </wgt>
<wgt id='1426'> +7.4541695e+04 </wgt>
<wgt id='1427'> +7.3753436e+04 </wgt>
<wgt id='1428'> +7.4491130e+04 </wgt>
<wgt id='1429'> +7.3353878e+04 </wgt>
<wgt id='1430'> +7.4370225e+04 </wgt>
<wgt id='1431'> +7.4015735e+04 </wgt>
<wgt id='1432'> +7.4062633e+04 </wgt>
<wgt id='1433'> +7.4068080e+04 </wgt>
<wgt id='1434'> +7.3903496e+04 </wgt>
<wgt id='1435'> +7.4221239e+04 </wgt>
<wgt id='1436'> +7.3806356e+04 </wgt>
<wgt id='1437'> +7.3752275e+04 </wgt>
<wgt id='1438'> +7.4033114e+04 </wgt>
<wgt id='1439'> +7.3481660e+04 </wgt>
<wgt id='1440'> +7.3893320e+04 </wgt>
<wgt id='1441'> +7.3701223e+04 </wgt>
<wgt id='1442'> +7.4186341e+04 </wgt>
<wgt id='1443'> +7.4000200e+04 </wgt>
<wgt id='1444'> +7.4102321e+04 </wgt>
<wgt id='1445'> +7.4066935e+04 </wgt>
<wgt id='1446'> +7.3861440e+04 </wgt>
<wgt id='1447'> +7.4041251e+04 </wgt>
<wgt id='1448'> +7.4114852e+04 </wgt>
<wgt id='1449'> +7.4077085e+04 </wgt>
<wgt id='1450'> +7.4082668e+04 </wgt>
<wgt id='1451'> +7.4080376e+04 </wgt>
<wgt id='1452'> +7.4135146e+04 </wgt>
<wgt id='1453'> +7.4004062e+04 </wgt>
<wgt id='1454'> +7.4082484e+04 </wgt>
<wgt id='1455'> +7.3974557e+04 </wgt>
<wgt id='1456'> +7.4025106e+04 </wgt>
<wgt id='1457'> +7.4013830e+04 </wgt>
<wgt id='1458'> +7.4058979e+04 </wgt>
<wgt id='1459'> +7.4023135e+04 </wgt>
<wgt id='1460'> +7.4007106e+04 </wgt>
<wgt id='1461'> +7.4008635e+04 </wgt>
<wgt id='1462'> +7.3996402e+04 </wgt>
<wgt id='1463'> +7.4045489e+04 </wgt>
<wgt id='1464'> +7.4036884e+04 </wgt>
<wgt id='1465'> +7.3991953e+04 </wgt>
<wgt id='1466'> +7.4008723e+04 </wgt>
<wgt id='1467'> +7.3985348e+04 </wgt>
<wgt id='1468'> +7.4003579e+04 </wgt>
<wgt id='1469'> +7.4036518e+04 </wgt>
<wgt id='1470'> +7.4010669e+04 </wgt>
<wgt id='1471'> +7.4029973e+04 </wgt>
<wgt id='1472'> +7.4015895e+04 </wgt>
<wgt id='1473'> +7.4013895e+04 </wgt>
<wgt id='1474'> +7.4017573e+04 </wgt>
<wgt id='1475'> +7.4033662e+04 </wgt>
<wgt id='1476'> +7.4008568e+04 </wgt>
<wgt id='1477'> +7.4008643e+04 </wgt>
<wgt id='1478'> +7.4042304e+04 </wgt>
<wgt id='1479'> +7.4004324e+04 </wgt>
<wgt id='1480'> +7.4016654e+04 </wgt>
<wgt id='1481'> +7.4016428e+04 </wgt>
<wgt id='1482'> +7.3353878e+04 </wgt>
<wgt id='1483'> +7.4370225e+04 </wgt>
<wgt id='1484'> +7.2835315e+04 </wgt>
<wgt id='1485'> +7.2793562e+04 </wgt>
<wgt id='1486'> +7.2516850e+04 </wgt>
<wgt id='1487'> +7.2003601e+04 </wgt>
<wgt id='1488'> +7.3956242e+04 </wgt>
<wgt id='1489'> +7.2850453e+04 </wgt>
<wgt id='1490'> +7.1130371e+04 </wgt>
<wgt id='1491'> +7.2866302e+04 </wgt>
<wgt id='1492'> +7.3327899e+04 </wgt>
<wgt id='1493'> +7.4133913e+04 </wgt>
<wgt id='1494'> +7.1991156e+04 </wgt>
<wgt id='1495'> +7.2298068e+04 </wgt>
<wgt id='1496'> +7.3007687e+04 </wgt>
<wgt id='1497'> +7.1311800e+04 </wgt>
<wgt id='1498'> +7.3232871e+04 </wgt>
<wgt id='1499'> +7.2681276e+04 </wgt>
<wgt id='1500'> +7.0384312e+04 </wgt>
<wgt id='1501'> +7.3261526e+04 </wgt>
<wgt id='1502'> +7.2827139e+04 </wgt>
<wgt id='1503'> +7.1673638e+04 </wgt>
<wgt id='1504'> +7.2727621e+04 </wgt>
<wgt id='1505'> +7.2797208e+04 </wgt>
<wgt id='1506'> +7.3618649e+04 </wgt>
<wgt id='1507'> +7.3016026e+04 </wgt>
<wgt id='1508'> +7.1459810e+04 </wgt>
<wgt id='1509'> +7.2946722e+04 </wgt>
<wgt id='1510'> +7.3553214e+04 </wgt>
<wgt id='1511'> +7.3073842e+04 </wgt>
<wgt id='1512'> +7.3758710e+04 </wgt>
<wgt id='1513'> +7.2033649e+04 </wgt>
<wgt id='1514'> +7.4208614e+04 </wgt>
<wgt id='1515'> +7.3286034e+04 </wgt>
<wgt id='1516'> +7.3585757e+04 </wgt>
<wgt id='1517'> +7.2243146e+04 </wgt>
<wgt id='1518'> +7.2650899e+04 </wgt>
<wgt id='1519'> +7.2435892e+04 </wgt>
<wgt id='1520'> +7.3602921e+04 </wgt>
<wgt id='1521'> +7.3719001e+04 </wgt>
<wgt id='1522'> +7.2317490e+04 </wgt>
<wgt id='1523'> +7.2321017e+04 </wgt>
<wgt id='1524'> +7.3024103e+04 </wgt>
<wgt id='1525'> +7.2680172e+04 </wgt>
<wgt id='1526'> +7.1746597e+04 </wgt>
<wgt id='1527'> +7.3060936e+04 </wgt>
<wgt id='1528'> +7.2885093e+04 </wgt>
<wgt id='1529'> +7.2554251e+04 </wgt>
<wgt id='1530'> +7.2141350e+04 </wgt>
<wgt id='1531'> +7.3901350e+04 </wgt>
<wgt id='1532'> +7.1769929e+04 </wgt>
<wgt id='1533'> +7.3482837e+04 </wgt>
<wgt id='1534'> +7.2666822e+04 </wgt>
<wgt id='1535'> +7.3849088e+04 </wgt>
<wgt id='1536'> +7.2620188e+04 </wgt>
<wgt id='1537'> +7.3957121e+04 </wgt>
<wgt id='1538'> +7.2503252e+04 </wgt>
<wgt id='1539'> +7.3542614e+04 </wgt>
<wgt id='1540'> +7.3464157e+04 </wgt>
<wgt id='1541'> +7.2763216e+04 </wgt>
<wgt id='1542'> +7.2519414e+04 </wgt>
<wgt id='1543'> +7.2504889e+04 </wgt>
<wgt id='1544'> +7.2727309e+04 </wgt>
<wgt id='1545'> +7.2791241e+04 </wgt>
<wgt id='1546'> +7.2514611e+04 </wgt>
<wgt id='1547'> +7.2656866e+04 </wgt>
<wgt id='1548'> +7.3604782e+04 </wgt>
<wgt id='1549'> +7.2585356e+04 </wgt>
<wgt id='1550'> +7.2610901e+04 </wgt>
<wgt id='1551'> +7.3470193e+04 </wgt>
<wgt id='1552'> +7.1785601e+04 </wgt>
<wgt id='1553'> +7.2913307e+04 </wgt>
<wgt id='1554'> +7.3865856e+04 </wgt>
<wgt id='1555'> +7.2877072e+04 </wgt>
<wgt id='1556'> +7.2673778e+04 </wgt>
<wgt id='1557'> +7.2842079e+04 </wgt>
<wgt id='1558'> +7.2432028e+04 </wgt>
<wgt id='1559'> +7.3349309e+04 </wgt>
<wgt id='1560'> +7.3441043e+04 </wgt>
<wgt id='1561'> +7.3418245e+04 </wgt>
<wgt id='1562'> +7.2795731e+04 </wgt>
<wgt id='1563'> +7.4443048e+04 </wgt>
<wgt id='1564'> +7.3287522e+04 </wgt>
<wgt id='1565'> +7.3384899e+04 </wgt>
<wgt id='1566'> +7.1809971e+04 </wgt>
<wgt id='1567'> +7.2206384e+04 </wgt>
<wgt id='1568'> +7.2013807e+04 </wgt>
<wgt id='1569'> +7.3131641e+04 </wgt>
<wgt id='1570'> +7.1846710e+04 </wgt>
<wgt id='1571'> +7.2767461e+04 </wgt>
<wgt id='1572'> +7.4547000e+04 </wgt>
<wgt id='1573'> +7.2308693e+04 </wgt>
<wgt id='1574'> +7.1321451e+04 </wgt>
<wgt id='1575'> +7.3258888e+04 </wgt>
<wgt id='1576'> +7.3057863e+04 </wgt>
<wgt id='1577'> +7.3483556e+04 </wgt>
<wgt id='1578'> +7.2527990e+04 </wgt>
<wgt id='1579'> +7.1953421e+04 </wgt>
<wgt id='1580'> +7.2838154e+04 </wgt>
<wgt id='1581'> +7.3173882e+04 </wgt>
<wgt id='1582'> +7.4493554e+04 </wgt>
<wgt id='1583'> +7.3236347e+04 </wgt>
<wgt id='1584'> +7.1700684e+04 </wgt>
<wgt id='1585'> +7.0737530e+04 </wgt>
<wgt id='1586'> +5.9661986e+04 </wgt>
<wgt id='1587'> +7.2561716e+04 </wgt>
<wgt id='1588'> +7.3353878e+04 </wgt>
<wgt id='1589'> +7.3626319e+04 </wgt>
<wgt id='1590'> +7.4135722e+04 </wgt>
<wgt id='1591'> +7.4370225e+04 </wgt>
<wgt id='1592'> +7.4697332e+04 </wgt>
<wgt id='1593'> +7.3168852e+04 </wgt>
<wgt id='1594'> +7.2438292e+04 </wgt>
<wgt id='1595'> +7.2343580e+04 </wgt>
<wgt id='1596'> +7.3756216e+04 </wgt>
<wgt id='1597'> +7.1988504e+04 </wgt>
<wgt id='1598'> +7.2362359e+04 </wgt>
<wgt id='1599'> +7.3290446e+04 </wgt>
<wgt id='1600'> +7.2260672e+04 </wgt>
<wgt id='1601'> +7.3838341e+04 </wgt>
<wgt id='1602'> +7.2433388e+04 </wgt>
<wgt id='1603'> +7.3925763e+04 </wgt>
<wgt id='1604'> +7.3424699e+04 </wgt>
<wgt id='1605'> +7.2964663e+04 </wgt>
<wgt id='1606'> +7.2957766e+04 </wgt>
<wgt id='1607'> +7.2998119e+04 </wgt>
<wgt id='1608'> +7.2932164e+04 </wgt>
<wgt id='1609'> +7.2391269e+04 </wgt>
<wgt id='1610'> +7.2951468e+04 </wgt>
<wgt id='1611'> +7.3232773e+04 </wgt>
<wgt id='1612'> +7.3464537e+04 </wgt>
<wgt id='1613'> +7.2175219e+04 </wgt>
<wgt id='1614'> +7.3322812e+04 </wgt>
<wgt id='1615'> +7.2877974e+04 </wgt>
<wgt id='1616'> +7.2439574e+04 </wgt>
<wgt id='1617'> +7.3216547e+04 </wgt>
<wgt id='1618'> +7.3396032e+04 </wgt>
<wgt id='1619'> +7.2540879e+04 </wgt>
<wgt id='1620'> +7.2872087e+04 </wgt>
<wgt id='1621'> +7.3146343e+04 </wgt>
<wgt id='1622'> +7.2434747e+04 </wgt>
<wgt id='1623'> +7.3333591e+04 </wgt>
<wgt id='1624'> +7.3279364e+04 </wgt>
<wgt id='1625'> +7.1726151e+04 </wgt>
<wgt id='1626'> +7.2454055e+04 </wgt>
<wgt id='1627'> +7.3531319e+04 </wgt>
<wgt id='1628'> +7.3519875e+04 </wgt>
<wgt id='1629'> +7.2867125e+04 </wgt>
<wgt id='1630'> +7.3761227e+04 </wgt>
<wgt id='1631'> +7.2058518e+04 </wgt>
<wgt id='1632'> +7.3630929e+04 </wgt>
<wgt id='1633'> +7.2298720e+04 </wgt>
<wgt id='1634'> +7.3335280e+04 </wgt>
<wgt id='1635'> +7.2953720e+04 </wgt>
<wgt id='1636'> +7.2450099e+04 </wgt>
<wgt id='1637'> +7.4044403e+04 </wgt>
<wgt id='1638'> +7.4734324e+04 </wgt>
<wgt id='1639'> +7.2298321e+04 </wgt>
<wgt id='1640'> +7.3355544e+04 </wgt>
<wgt id='1641'> +7.2348997e+04 </wgt>
<wgt id='1642'> +7.2135462e+04 </wgt>
<wgt id='1643'> +7.4036529e+04 </wgt>
<wgt id='1644'> +7.5271154e+04 </wgt>
<wgt id='1645'> +7.0679624e+04 </wgt>
<wgt id='1646'> +7.3533449e+04 </wgt>
<wgt id='1647'> +7.2965525e+04 </wgt>
<wgt id='1648'> +7.3514924e+04 </wgt>
<wgt id='1649'> +7.2894040e+04 </wgt>
<wgt id='1650'> +7.2934430e+04 </wgt>
<wgt id='1651'> +7.3434606e+04 </wgt>
<wgt id='1652'> +7.3837130e+04 </wgt>
<wgt id='1653'> +7.3509643e+04 </wgt>
<wgt id='1654'> +7.2817296e+04 </wgt>
<wgt id='1655'> +7.2473875e+04 </wgt>
<wgt id='1656'> +7.2399563e+04 </wgt>
<wgt id='1657'> +7.1879012e+04 </wgt>
<wgt id='1658'> +7.1790793e+04 </wgt>
<wgt id='1659'> +7.2659407e+04 </wgt>
<wgt id='1660'> +7.2147754e+04 </wgt>
<wgt id='1661'> +7.3036224e+04 </wgt>
<wgt id='1662'> +7.1547839e+04 </wgt>
<wgt id='1663'> +7.1759548e+04 </wgt>
<wgt id='1664'> +7.2363143e+04 </wgt>
<wgt id='1665'> +7.2131530e+04 </wgt>
<wgt id='1666'> +7.2278674e+04 </wgt>
<wgt id='1667'> +7.2732251e+04 </wgt>
<wgt id='1668'> +7.2006732e+04 </wgt>
<wgt id='1669'> +7.2624334e+04 </wgt>
<wgt id='1670'> +7.1895207e+04 </wgt>
<wgt id='1671'> +7.2553568e+04 </wgt>
<wgt id='1672'> +7.1848083e+04 </wgt>
<wgt id='1673'> +7.2339135e+04 </wgt>
<wgt id='1674'> +7.2438925e+04 </wgt>
<wgt id='1675'> +7.2323199e+04 </wgt>
<wgt id='1676'> +7.2499655e+04 </wgt>
<wgt id='1677'> +7.1450070e+04 </wgt>
<wgt id='1678'> +7.3071869e+04 </wgt>
<wgt id='1679'> +7.3027578e+04 </wgt>
<wgt id='1680'> +7.2504595e+04 </wgt>
<wgt id='1681'> +7.1700039e+04 </wgt>
<wgt id='1682'> +7.2473725e+04 </wgt>
<wgt id='1683'> +7.2245470e+04 </wgt>
<wgt id='1684'> +7.2437758e+04 </wgt>
<wgt id='1685'> +7.3064460e+04 </wgt>
<wgt id='1686'> +7.1635789e+04 </wgt>
<wgt id='1687'> +7.2443815e+04 </wgt>
<wgt id='1688'> +7.2164633e+04 </wgt>
<wgt id='1689'> +7.3148644e+04 </wgt>
<wgt id='1690'> +7.1897731e+04 </wgt>
<wgt id='1691'> +7.2437002e+04 </wgt>
<wgt id='1692'> +7.2038281e+04 </wgt>
<wgt id='1693'> +7.3558429e+04 </wgt>
<wgt id='1694'> +7.1691675e+04 </wgt>
<wgt id='1695'> +7.3301375e+04 </wgt>
<wgt id='1696'> +7.1303272e+04 </wgt>
<wgt id='1697'> +7.2406350e+04 </wgt>
<wgt id='1698'> +7.2450063e+04 </wgt>
<wgt id='1699'> +7.2114578e+04 </wgt>
<wgt id='1700'> +7.2395647e+04 </wgt>
<wgt id='1701'> +7.1208498e+04 </wgt>
<wgt id='1702'> +7.3790549e+04 </wgt>
<wgt id='1703'> +7.2900811e+04 </wgt>
<wgt id='1704'> +7.2053660e+04 </wgt>
<wgt id='1705'> +7.2798537e+04 </wgt>
<wgt id='1706'> +7.1821885e+04 </wgt>
<wgt id='1707'> +7.0979569e+04 </wgt>
<wgt id='1708'> +7.3198935e+04 </wgt>
<wgt id='1709'> +7.1617047e+04 </wgt>
<wgt id='1710'> +7.3280650e+04 </wgt>
<wgt id='1711'> +7.2089393e+04 </wgt>
<wgt id='1712'> +7.2073672e+04 </wgt>
<wgt id='1713'> +7.1472649e+04 </wgt>
<wgt id='1714'> +7.2694473e+04 </wgt>
<wgt id='1715'> +7.1448421e+04 </wgt>
<wgt id='1716'> +7.3456348e+04 </wgt>
<wgt id='1717'> +7.1926721e+04 </wgt>
<wgt id='1718'> +7.2060432e+04 </wgt>
<wgt id='1719'> +7.1755263e+04 </wgt>
<wgt id='1720'> +7.1650406e+04 </wgt>
<wgt id='1721'> +7.2179085e+04 </wgt>
<wgt id='1722'> +7.1765758e+04 </wgt>
<wgt id='1723'> +7.2190553e+04 </wgt>
<wgt id='1724'> +7.2034835e+04 </wgt>
<wgt id='1725'> +7.1838787e+04 </wgt>
<wgt id='1726'> +7.1868721e+04 </wgt>
<wgt id='1727'> +7.1986510e+04 </wgt>
<wgt id='1728'> +7.1707028e+04 </wgt>
<wgt id='1729'> +7.2139366e+04 </wgt>
<wgt id='1730'> +7.1964977e+04 </wgt>
<wgt id='1731'> +7.1899742e+04 </wgt>
<wgt id='1732'> +7.1898208e+04 </wgt>
<wgt id='1733'> +7.1898208e+04 </wgt>
<wgt id='1734'> +7.2174304e+04 </wgt>
<wgt id='1735'> +7.1757915e+04 </wgt>
<wgt id='1736'> +7.2020611e+04 </wgt>
<wgt id='1737'> +7.1802946e+04 </wgt>
<wgt id='1738'> +7.2042593e+04 </wgt>
<wgt id='1739'> +7.1719308e+04 </wgt>
<wgt id='1740'> +7.1832046e+04 </wgt>
<wgt id='1741'> +7.2154924e+04 </wgt>
<wgt id='1742'> +7.1547967e+04 </wgt>
<wgt id='1743'> +7.2363146e+04 </wgt>
<wgt id='1744'> +7.1889411e+04 </wgt>
<wgt id='1745'> +7.2027520e+04 </wgt>
<wgt id='1746'> +7.1878909e+04 </wgt>
<wgt id='1747'> +7.1945026e+04 </wgt>
<wgt id='1748'> +7.1987273e+04 </wgt>
<wgt id='1749'> +7.1684310e+04 </wgt>
<wgt id='1750'> +7.1987564e+04 </wgt>
<wgt id='1751'> +7.1861745e+04 </wgt>
<wgt id='1752'> +7.2023573e+04 </wgt>
<wgt id='1753'> +7.1810738e+04 </wgt>
<wgt id='1754'> +7.2016476e+04 </wgt>
<wgt id='1755'> +7.1878396e+04 </wgt>
<wgt id='1756'> +7.2099203e+04 </wgt>
<wgt id='1757'> +7.1516557e+04 </wgt>
<wgt id='1758'> +7.2299343e+04 </wgt>
<wgt id='1759'> +7.1563491e+04 </wgt>
<wgt id='1760'> +7.1532126e+04 </wgt>
<wgt id='1761'> +7.2362523e+04 </wgt>
<wgt id='1762'> +7.1936813e+04 </wgt>
<wgt id='1763'> +7.1471922e+04 </wgt>
<wgt id='1764'> +7.1908456e+04 </wgt>
<wgt id='1765'> +7.2082087e+04 </wgt>
<wgt id='1766'> +7.1945987e+04 </wgt>
<wgt id='1767'> +7.1884617e+04 </wgt>
<wgt id='1768'> +7.2032907e+04 </wgt>
<wgt id='1769'> +7.1793285e+04 </wgt>
<wgt id='1770'> +7.1483649e+04 </wgt>
<wgt id='1771'> +7.2043785e+04 </wgt>
<wgt id='1772'> +7.2132662e+04 </wgt>
<wgt id='1773'> +7.1805289e+04 </wgt>
<wgt id='1774'> +7.1714511e+04 </wgt>
<wgt id='1775'> +7.2069043e+04 </wgt>
<wgt id='1776'> +7.1913362e+04 </wgt>
<wgt id='1777'> +7.1947301e+04 </wgt>
<wgt id='1778'> +7.1759323e+04 </wgt>
<wgt id='1779'> +7.1837760e+04 </wgt>
<wgt id='1780'> +7.2400452e+04 </wgt>
<wgt id='1781'> +7.2031282e+04 </wgt>
<wgt id='1782'> +7.1926721e+04 </wgt>
<wgt id='1783'> +7.1966617e+04 </wgt>
<wgt id='1784'> +7.2749450e+04 </wgt>
<wgt id='1785'> +7.2955488e+04 </wgt>
<wgt id='1786'> +7.1707840e+04 </wgt>
<wgt id='1787'> +7.2763118e+04 </wgt>
<wgt id='1788'> +7.2506256e+04 </wgt>
<wgt id='1789'> +7.2766001e+04 </wgt>
<wgt id='1790'> +7.2882171e+04 </wgt>
<wgt id='1791'> +7.2772288e+04 </wgt>
<wgt id='1792'> +7.1372125e+04 </wgt>
<wgt id='1793'> +7.2887961e+04 </wgt>
<wgt id='1794'> +7.2432329e+04 </wgt>
<wgt id='1795'> +7.2743577e+04 </wgt>
<wgt id='1796'> +7.2842737e+04 </wgt>
<wgt id='1797'> +7.2596091e+04 </wgt>
<wgt id='1798'> +7.2816329e+04 </wgt>
<wgt id='1799'> +7.2832487e+04 </wgt>
<wgt id='1800'> +7.2755087e+04 </wgt>
<wgt id='1801'> +7.2749307e+04 </wgt>
<wgt id='1802'> +7.2895736e+04 </wgt>
<wgt id='1803'> +7.2705548e+04 </wgt>
<wgt id='1804'> +7.2912752e+04 </wgt>
<wgt id='1805'> +7.2731510e+04 </wgt>
<wgt id='1806'> +7.2677905e+04 </wgt>
<wgt id='1807'> +7.2734665e+04 </wgt>
<wgt id='1808'> +7.2769298e+04 </wgt>
<wgt id='1809'> +7.2811175e+04 </wgt>
<wgt id='1810'> +7.2756446e+04 </wgt>
<wgt id='1811'> +7.2786426e+04 </wgt>
<wgt id='1812'> +7.2727740e+04 </wgt>
<wgt id='1813'> +7.2793610e+04 </wgt>
<wgt id='1814'> +7.3015677e+04 </wgt>
<wgt id='1815'> +7.2674148e+04 </wgt>
<wgt id='1816'> +7.2777134e+04 </wgt>
<wgt id='1817'> +7.2767046e+04 </wgt>
<wgt id='1818'> +7.2812694e+04 </wgt>
<wgt id='1819'> +7.2779939e+04 </wgt>
<wgt id='1820'> +7.2847011e+04 </wgt>
<wgt id='1821'> +7.2762965e+04 </wgt>
<wgt id='1822'> +7.2742379e+04 </wgt>
<wgt id='1823'> +7.2760096e+04 </wgt>
<wgt id='1824'> +7.2759920e+04 </wgt>
<wgt id='1825'> +7.2512310e+04 </wgt>
<wgt id='1826'> +7.3394571e+04 </wgt>
<wgt id='1827'> +7.5425220e+04 </wgt>
<wgt id='1828'> +7.5491752e+04 </wgt>
<wgt id='1829'> +7.5357642e+04 </wgt>
<wgt id='1830'> +7.5427530e+04 </wgt>
<wgt id='1831'> +7.5421649e+04 </wgt>
<wgt id='1832'> +7.5596127e+04 </wgt>
<wgt id='1833'> +7.5253408e+04 </wgt>
<wgt id='1834'> +7.5485497e+04 </wgt>
<wgt id='1835'> +7.5359095e+04 </wgt>
<wgt id='1836'> +7.5535915e+04 </wgt>
<wgt id='1837'> +7.5313427e+04 </wgt>
<wgt id='1838'> +7.5499194e+04 </wgt>
<wgt id='1839'> +7.5349788e+04 </wgt>
<wgt id='1840'> +7.5268581e+04 </wgt>
<wgt id='1841'> +7.5580772e+04 </wgt>
<wgt id='1842'> +7.5337420e+04 </wgt>
<wgt id='1843'> +7.5482860e+04 </wgt>
<wgt id='1844'> +7.5335128e+04 </wgt>
<wgt id='1845'> +7.5497872e+04 </wgt>
<wgt id='1846'> +7.5341163e+04 </wgt>
<wgt id='1847'> +7.5501133e+04 </wgt>
<wgt id='1848'> +7.4784694e+04 </wgt>
<wgt id='1849'> +7.5959865e+04 </wgt>
<wgt id='1850'> +7.5289197e+04 </wgt>
<wgt id='1851'> +7.5562202e+04 </wgt>
<wgt id='1852'> +7.5315458e+04 </wgt>
<wgt id='1853'> +7.5362295e+04 </wgt>
<wgt id='1854'> +7.5468929e+04 </wgt>
<wgt id='1855'> +7.5440767e+04 </wgt>
<wgt id='1856'> +7.4267110e+04 </wgt>
<wgt id='1857'> +7.4252282e+04 </wgt>
<wgt id='1858'> +7.4198702e+04 </wgt>
<wgt id='1859'> +7.4365121e+04 </wgt>
<wgt id='1860'> +7.4266508e+04 </wgt>
<wgt id='1861'> +7.4196160e+04 </wgt>
<wgt id='1862'> +7.4104095e+04 </wgt>
<wgt id='1863'> +7.4277842e+04 </wgt>
<wgt id='1864'> +7.4190109e+04 </wgt>
<wgt id='1865'> +7.4397943e+04 </wgt>
<wgt id='1866'> +7.4258715e+04 </wgt>
<wgt id='1867'> +7.4189486e+04 </wgt>
<wgt id='1868'> +7.4186036e+04 </wgt>
<wgt id='1869'> +7.4338934e+04 </wgt>
<wgt id='1870'> +7.4167915e+04 </wgt>
<wgt id='1871'> +7.4298641e+04 </wgt>
<wgt id='1872'> +7.4218814e+04 </wgt>
<wgt id='1873'> +7.4273293e+04 </wgt>
<wgt id='1874'> +7.4181327e+04 </wgt>
<wgt id='1875'> +7.4368041e+04 </wgt>
<wgt id='1876'> +7.4071214e+04 </wgt>
<wgt id='1877'> +7.4161172e+04 </wgt>
<wgt id='1878'> +7.3995640e+04 </wgt>
<wgt id='1879'> +7.4227441e+04 </wgt>
<wgt id='1880'> +7.4391979e+04 </wgt>
<wgt id='1881'> +7.4359069e+04 </wgt>
<wgt id='1882'> +7.4244174e+04 </wgt>
<wgt id='1883'> +7.4109110e+04 </wgt>
<wgt id='1884'> +7.4361340e+04 </wgt>
<wgt id='1885'> +7.3933413e+04 </wgt>
<wgt id='1886'> +8.3097022e+04 </wgt>
<wgt id='1887'> +8.7808602e+04 </wgt>
<wgt id='1888'> +7.3034046e+04 </wgt>
<wgt id='1889'> +7.9756244e+04 </wgt>
</rwgt>
</event>
<event npLO=" -1 " npNLO=" 0 ">
 5      1 +7.4519530e+04 1.79806990e+01 7.55820760e-03 1.20718170e-01
        1 -1    0    0  501    0 +0.0000000000e+00 +0.0000000000e+00 +1.8178770686e+02 1.8178770686e+02 0.0000000000e+00 0.0000e+00 -1.0000e+00
       -2 -1    0    0    0  501 +0.0000000000e+00 +0.0000000000e+00 -8.4871807554e+00 8.4871807554e+00 0.0000000000e+00 0.0000e+00 1.0000e+00
      -24  2    1    2    0    0 +0.0000000000e+00 +0.0000000000e+00 +1.7330052611e+02 1.9027488762e+02 7.8558643757e+01 0.0000e+00 0.0000e+00
       13  1    3    3    0    0 -3.5990907694e+00 -1.1934522242e+01 +1.7686981856e+02 1.7730854179e+02 0.0000000000e+00 0.0000e+00 -1.0000e+00
      -14  1    3    3    0    0 +3.5990907694e+00 +1.1934522242e+01 -3.5692924502e+00 1.2966345827e+01 0.0000000000e+00 0.0000e+00 1.0000e+00
#aMCatNLO 1  0  0  1  2 0.22735622E+01 0.00000000E+00 -9  5  0 0.00000000E+00 0.00000000E+00 0.00000000E+00 0.00000000E+00 0.00000000E+00
<rwgt>
<wgt id='1001'> +7.4519530e+04 </wgt>
<wgt id='1002'> +7.2846253e+04 </wgt>
<wgt id='1003'> +7.6605760e+04 </wgt>
<wgt id='1004'> +8.9586583e+04 </wgt>
<wgt id='1005'> +8.7093657e+04 </wgt>
<wgt id='1006'> +9.2694887e+04 </wgt>
<wgt id='1007'> +6.1536610e+04 </wgt>
<wgt id='1008'> +6.0427842e+04 </wgt>
<wgt id='1009'> +6.2918890e+04 </wgt>
<wgt id='1010'> +7.4519530e+04 </wgt>
<wgt id='1011'> +7.4523347e+04 </wgt>
<wgt id='1012'> +7.4368396e+04 </wgt>
<wgt id='1013'> +7.4142156e+04 </wgt>
<wgt id='1014'> +7.4612261e+04 </wgt>
<wgt id='1015'> +7.4525950e+04 </wgt>
<wgt id='1016'> +7.4258423e+04 </wgt>
<wgt id='1017'> +7.4647963e+04 </wgt>
<wgt id='1018'> +7.3773183e+04 </wgt>
<wgt id='1019'> +7.5334146e+04 </wgt>
<wgt id='1020'> +7.4059320e+04 </wgt>
<wgt id='1021'> +7.4686240e+04 </wgt>
<wgt id='1022'> +7.4281665e+04 </wgt>
<wgt id='1023'> +7.4536987e+04 </wgt>
<wgt id='1024'> +7.4348633e+04 </wgt>
<wgt id='1025'> +7.5698580e+04 </wgt>
<wgt id='1026'> +7.3775466e+04 </wgt>
<wgt id='1027'> +7.4390882e+04 </wgt>
<wgt id='1028'> +7.3407021e+04 </wgt>
<wgt id='1029'> +7.4612020e+04 </wgt>
<wgt id='1030'> +7.5238623e+04 </wgt>
<wgt id='1031'> +7.4570747e+04 </wgt>
<wgt id='1032'> +7.5188823e+04 </wgt>
<wgt id='1033'> +7.4138365e+04 </wgt>
<wgt id='1034'> +7.4478843e+04 </wgt>
<wgt id='1035'> +7.3740802e+04 </wgt>
<wgt id='1036'> +7.3885235e+04 </wgt>
<wgt id='1037'> +7.6224053e+04 </wgt>
<wgt id='1038'> +7.4904223e+04 </wgt>
<wgt id='1039'> +7.4255737e+04 </wgt>
<wgt id='1040'> +7.4296966e+04 </wgt>
<wgt id='1041'> +7.5125563e+04 </wgt>
<wgt id='1042'> +7.4606435e+04 </wgt>
<wgt id='1043'> +7.4800585e+04 </wgt>
<wgt id='1044'> +7.4567555e+04 </wgt>
<wgt id='1045'> +7.4748995e+04 </wgt>
<wgt id='1046'> +7.4357229e+04 </wgt>
<wgt id='1047'> +7.3957386e+04 </wgt>
<wgt id='1048'> +7.4542949e+04 </wgt>
<wgt id='1049'> +7.5206931e+04 </wgt>
<wgt id='1050'> +7.4105725e+04 </wgt>
<wgt id='1051'> +7.4734658e+04 </wgt>
<wgt id='1052'> +7.4356403e+04 </wgt>
<wgt id='1053'> +7.3595738e+04 </wgt>
<wgt id='1054'> +7.4046884e+04 </wgt>
<wgt id='1055'> +7.4481174e+04 </wgt>
<wgt id='1056'> +7.5257955e+04 </wgt>
<wgt id='1057'> +7.4310511e+04 </wgt>
<wgt id='1058'> +7.4846604e+04 </wgt>
<wgt id='1059'> +7.4274209e+04 </wgt>
<wgt id='1060'> +7.4756271e+04 </wgt>
<wgt id='1061'> +7.4264557e+04 </wgt>
<wgt id='1062'> +7.4603530e+04 </wgt>
<wgt id='1063'> +7.4084138e+04 </wgt>
<wgt id='1064'> +7.4684498e+04 </wgt>
<wgt id='1065'> +7.4649728e+04 </wgt>
<wgt id='1066'> +7.4700725e+04 </wgt>
<wgt id='1067'> +7.4860275e+04 </wgt>
<wgt id='1068'> +7.4781373e+04 </wgt>
<wgt id='1069'> +7.4462033e+04 </wgt>
<wgt id='1070'> +7.4606554e+04 </wgt>
<wgt id='1071'> +7.4510094e+04 </wgt>
<wgt id='1072'> +7.4820089e+04 </wgt>
<wgt id='1073'> +7.4682189e+04 </wgt>
<wgt id='1074'> +7.4519853e+04 </wgt>
<wgt id='1075'> +7.4286194e+04 </wgt>
<wgt id='1076'> +7.4387415e+04 </wgt>
<wgt id='1077'> +7.4488723e+04 </wgt>
<wgt id='1078'> +7.4693828e+04 </wgt>
<wgt id='1079'> +7.4840254e+04 </wgt>
<wgt id='1080'> +7.4391710e+04 </wgt>
<wgt id='1081'> +7.4764462e+04 </wgt>
<wgt id='1082'> +7.4543777e+04 </wgt>
<wgt id='1083'> +7.4253368e+04 </wgt>
<wgt id='1084'> +7.4820989e+04 </wgt>
<wgt id='1085'> +7.4423255e+04 </wgt>
<wgt id='1086'> +7.4383017e+04 </wgt>
<wgt id='1087'> +7.4753709e+04 </wgt>
<wgt id='1088'> +7.4521018e+04 </wgt>
<wgt id='1089'> +7.4709833e+04 </wgt>
<wgt id='1090'> +7.4668870e+04 </wgt>
<wgt id='1091'> +7.4670670e+04 </wgt>
<wgt id='1092'> +7.4351184e+04 </wgt>
<wgt id='1093'> +7.4559932e+04 </wgt>
<wgt id='1094'> +7.4495617e+04 </wgt>
<wgt id='1095'> +7.4586357e+04 </wgt>
<wgt id='1096'> +7.4537558e+04 </wgt>
<wgt id='1097'> +7.4451184e+04 </wgt>
<wgt id='1098'> +7.4538537e+04 </wgt>
<wgt id='1099'> +7.4452751e+04 </wgt>
<wgt id='1100'> +7.4553490e+04 </wgt>
<wgt id='1101'> +7.4511477e+04 </wgt>
<wgt id='1102'> +7.4501866e+04 </wgt>
<wgt id='1103'> +7.4701910e+04 </wgt>
<wgt id='1104'> +7.4624076e+04 </wgt>
<wgt id='1105'> +7.4675250e+04 </wgt>
<wgt id='1106'> +7.4481817e+04 </wgt>
<wgt id='1107'> +7.4566445e+04 </wgt>
<wgt id='1108'> +7.4519669e+04 </wgt>
<wgt id='1109'> +7.4575003e+04 </wgt>
<wgt id='1110'> +7.4519543e+04 </wgt>
<wgt id='1111'> +7.3201142e+04 </wgt>
<wgt id='1112'> +7.6300358e+04 </wgt>
<wgt id='1113'> +7.4519543e+04 </wgt>
<wgt id='1114'> +8.7114404e+04 </wgt>
<wgt id='1115'> +7.5626864e+04 </wgt>
<wgt id='1116'> +6.3950968e+04 </wgt>
<wgt id='1117'> +6.8583510e+04 </wgt>
<wgt id='1118'> +7.2859199e+04 </wgt>
<wgt id='1119'> +8.0261874e+04 </wgt>
<wgt id='1120'> +7.6491053e+04 </wgt>
<wgt id='1121'> +7.2458853e+04 </wgt>
<wgt id='1122'> +6.8996873e+04 </wgt>
<wgt id='1123'> +7.1043540e+04 </wgt>
<wgt id='1124'> +7.3829559e+04 </wgt>
<wgt id='1125'> +7.1244566e+04 </wgt>
<wgt id='1126'> +7.4361365e+04 </wgt>
<wgt id='1127'> +6.7884226e+04 </wgt>
<wgt id='1128'> +7.7960207e+04 </wgt>
<wgt id='1129'> +7.4125738e+04 </wgt>
<wgt id='1130'> +7.8804716e+04 </wgt>
<wgt id='1131'> +7.2662727e+04 </wgt>
<wgt id='1132'> +7.2353540e+04 </wgt>
<wgt id='1133'> +6.8218058e+04 </wgt>
<wgt id='1134'> +6.8943485e+04 </wgt>
<wgt id='1135'> +7.4804252e+04 </wgt>
<wgt id='1136'> +8.1498028e+04 </wgt>
<wgt id='1137'> +7.7631713e+04 </wgt>
<wgt id='1138'> +7.2998532e+04 </wgt>
<wgt id='1139'> +7.6938921e+04 </wgt>
<wgt id='1140'> +8.1295830e+04 </wgt>
<wgt id='1141'> +7.3171658e+04 </wgt>
<wgt id='1142'> +7.7653040e+04 </wgt>
<wgt id='1143'> +7.5752808e+04 </wgt>
<wgt id='1144'> +7.3772184e+04 </wgt>
<wgt id='1145'> +7.2985668e+04 </wgt>
<wgt id='1146'> +7.4741382e+04 </wgt>
<wgt id='1147'> +7.2411135e+04 </wgt>
<wgt id='1148'> +7.8375666e+04 </wgt>
<wgt id='1149'> +7.2425163e+04 </wgt>
<wgt id='1150'> +7.5969231e+04 </wgt>
<wgt id='1151'> +7.4310947e+04 </wgt>
<wgt id='1152'> +6.8305438e+04 </wgt>
<wgt id='1153'> +7.1323940e+04 </wgt>
<wgt id='1154'> +6.9590540e+04 </wgt>
<wgt id='1155'> +7.5700989e+04 </wgt>
<wgt id='1156'> +7.6829357e+04 </wgt>
<wgt id='1157'> +7.6622468e+04 </wgt>
<wgt id='1158'> +7.7767521e+04 </wgt>
<wgt id='1159'> +7.7613875e+04 </wgt>
<wgt id='1160'> +7.4119296e+04 </wgt>
<wgt id='1161'> +7.3039863e+04 </wgt>
<wgt id='1162'> +7.6537957e+04 </wgt>
<wgt id='1163'> +7.7893853e+04 </wgt>
<wgt id='1164'> +7.6813548e+04 </wgt>
<wgt id='1165'> +7.4367035e+04 </wgt>
<wgt id='1166'> +7.4033570e+04 </wgt>
<wgt id='1167'> +8.1229859e+04 </wgt>
<wgt id='1168'> +7.4173172e+04 </wgt>
<wgt id='1169'> +7.7341674e+04 </wgt>
<wgt id='1170'> +8.2360726e+04 </wgt>
<wgt id='1171'> +7.3547270e+04 </wgt>
<wgt id='1172'> +7.2834004e+04 </wgt>
<wgt id='1173'> +7.6356203e+04 </wgt>
<wgt id='1174'> +7.5138316e+04 </wgt>
<wgt id='1175'> +7.8845401e+04 </wgt>
<wgt id='1176'> +7.4559175e+04 </wgt>
<wgt id='1177'> +7.0856384e+04 </wgt>
<wgt id='1178'> +7.5571934e+04 </wgt>
<wgt id='1179'> +7.3718159e+04 </wgt>
<wgt id='1180'> +7.8086804e+04 </wgt>
<wgt id='1181'> +7.6073789e+04 </wgt>
<wgt id='1182'> +7.6131891e+04 </wgt>
<wgt id='1183'> +7.7096963e+04 </wgt>
<wgt id='1184'> +7.1959896e+04 </wgt>
<wgt id='1185'> +8.2751552e+04 </wgt>
<wgt id='1186'> +6.6116393e+04 </wgt>
<wgt id='1187'> +6.9289813e+04 </wgt>
<wgt id='1188'> +7.0356740e+04 </wgt>
<wgt id='1189'> +7.5211264e+04 </wgt>
<wgt id='1190'> +7.0806953e+04 </wgt>
<wgt id='1191'> +7.3167184e+04 </wgt>
<wgt id='1192'> +7.3393103e+04 </wgt>
<wgt id='1193'> +7.3469545e+04 </wgt>
<wgt id='1194'> +7.5139181e+04 </wgt>
<wgt id='1195'> +7.4125738e+04 </wgt>
<wgt id='1196'> +7.1741359e+04 </wgt>
<wgt id='1197'> +7.2420904e+04 </wgt>
<wgt id='1198'> +7.1210768e+04 </wgt>
<wgt id='1199'> +8.0851588e+04 </wgt>
<wgt id='1200'> +7.7900255e+04 </wgt>
<wgt id='1201'> +7.6332282e+04 </wgt>
<wgt id='1202'> +6.5833565e+04 </wgt>
<wgt id='1203'> +7.4470293e+04 </wgt>
<wgt id='1204'> +7.8059706e+04 </wgt>
<wgt id='1205'> +7.1811506e+04 </wgt>
<wgt id='1206'> +7.2780414e+04 </wgt>
<wgt id='1207'> +8.2485751e+04 </wgt>
<wgt id='1208'> +7.5199465e+04 </wgt>
<wgt id='1209'> +7.3214378e+04 </wgt>
<wgt id='1210'> +7.6172717e+04 </wgt>
<wgt id='1211'> +7.3130052e+04 </wgt>
<wgt id='1212'> +6.9772743e+04 </wgt>
<wgt id='1213'> +7.4366725e+04 </wgt>
<wgt id='1214'> +7.4625405e+04 </wgt>
<wgt id='1215'> +6.9636815e+04 </wgt>
<wgt id='1216'> +7.0036879e+04 </wgt>
<wgt id='1217'> +7.0915571e+04 </wgt>
<wgt id='1218'> +7.2271644e+04 </wgt>
<wgt id='1219'> +7.4512845e+04 </wgt>
<wgt id='1220'> +7.5022985e+04 </wgt>
<wgt id='1221'> +7.7961342e+04 </wgt>
<wgt id='1222'> +7.8202643e+04 </wgt>
<wgt id='1223'> +7.1934232e+04 </wgt>
<wgt id='1224'> +7.1836963e+04 </wgt>
<wgt id='1225'> +7.2243704e+04 </wgt>
<wgt id='1226'> +7.1663663e+04 </wgt>
<wgt id='1227'> +7.2261411e+04 </wgt>
<wgt id='1228'> +7.1784021e+04 </wgt>
<wgt id='1229'> +7.1471616e+04 </wgt>
<wgt id='1230'> +7.1883552e+04 </wgt>
<wgt id='1231'> +7.2155024e+04 </wgt>
<wgt id='1232'> +7.2029238e+04 </wgt>
<wgt id='1233'> +7.1353880e+04 </wgt>
<wgt id='1234'> +7.1811453e+04 </wgt>
<wgt id='1235'> +7.1880552e+04 </wgt>
<wgt id='1236'> +7.2491589e+04 </wgt>
<wgt id='1237'> +7.2023924e+04 </wgt>
<wgt id='1238'> +7.1230602e+04 </wgt>
<wgt id='1239'> +7.2802269e+04 </wgt>
<wgt id='1240'> +7.1219723e+04 </wgt>
<wgt id='1241'> +7.2219972e+04 </wgt>
<wgt id='1242'> +7.2181546e+04 </wgt>
<wgt id='1243'> +7.1219213e+04 </wgt>
<wgt id='1244'> +7.3310443e+04 </wgt>
<wgt id='1245'> +7.2039063e+04 </wgt>
<wgt id='1246'> +7.1900759e+04 </wgt>
<wgt id='1247'> +7.3272161e+04 </wgt>
<wgt id='1248'> +7.1133891e+04 </wgt>
<wgt id='1249'> +7.1934825e+04 </wgt>
<wgt id='1250'> +7.1469267e+04 </wgt>
<wgt id='1251'> +7.1779846e+04 </wgt>
<wgt id='1252'> +7.3485659e+04 </wgt>
<wgt id='1253'> +7.2603250e+04 </wgt>
<wgt id='1254'> +7.0760222e+04 </wgt>
<wgt id='1255'> +7.2474485e+04 </wgt>
<wgt id='1256'> +7.1628486e+04 </wgt>
<wgt id='1257'> +7.1618707e+04 </wgt>
<wgt id='1258'> +7.2207495e+04 </wgt>
<wgt id='1259'> +7.1910235e+04 </wgt>
<wgt id='1260'> +7.1511448e+04 </wgt>
<wgt id='1261'> +7.1634006e+04 </wgt>
<wgt id='1262'> +7.2097230e+04 </wgt>
<wgt id='1263'> +7.2000491e+04 </wgt>
<wgt id='1264'> +7.2123310e+04 </wgt>
<wgt id='1265'> +7.1664822e+04 </wgt>
<wgt id='1266'> +7.1668393e+04 </wgt>
<wgt id='1267'> +7.1712032e+04 </wgt>
<wgt id='1268'> +7.1403040e+04 </wgt>
<wgt id='1269'> +7.2046078e+04 </wgt>
<wgt id='1270'> +7.2271495e+04 </wgt>
<wgt id='1271'> +7.2191295e+04 </wgt>
<wgt id='1272'> +7.2307579e+04 </wgt>
<wgt id='1273'> +7.2087154e+04 </wgt>
<wgt id='1274'> +7.1496492e+04 </wgt>
<wgt id='1275'> +7.1600548e+04 </wgt>
<wgt id='1276'> +7.1975952e+04 </wgt>
<wgt id='1277'> +7.2127335e+04 </wgt>
<wgt id='1278'> +7.2049524e+04 </wgt>
<wgt id='1279'> +7.2373449e+04 </wgt>
<wgt id='1280'> +7.1852662e+04 </wgt>
<wgt id='1281'> +7.2125403e+04 </wgt>
<wgt id='1282'> +7.1761797e+04 </wgt>
<wgt id='1283'> +7.1592245e+04 </wgt>
<wgt id='1284'> +7.2010291e+04 </wgt>
<wgt id='1285'> +7.2398564e+04 </wgt>
<wgt id='1286'> +7.2173965e+04 </wgt>
<wgt id='1287'> +7.1905585e+04 </wgt>
<wgt id='1288'> +7.1841687e+04 </wgt>
<wgt id='1289'> +7.1915275e+04 </wgt>
<wgt id='1290'> +7.1902569e+04 </wgt>
<wgt id='1291'> +7.1781286e+04 </wgt>
<wgt id='1292'> +7.1701867e+04 </wgt>
<wgt id='1293'> +7.1939884e+04 </wgt>
<wgt id='1294'> +7.2101453e+04 </wgt>
<wgt id='1295'> +7.2209800e+04 </wgt>
<wgt id='1296'> +7.1756175e+04 </wgt>
<wgt id='1297'> +7.1995640e+04 </wgt>
<wgt id='1298'> +7.1901461e+04 </wgt>
<wgt id='1299'> +7.1836342e+04 </wgt>
<wgt id='1300'> +7.1940920e+04 </wgt>
<wgt id='1301'> +7.1816279e+04 </wgt>
<wgt id='1302'> +7.1946281e+04 </wgt>
<wgt id='1303'> +7.1809547e+04 </wgt>
<wgt id='1304'> +7.1781517e+04 </wgt>
<wgt id='1305'> +7.1964822e+04 </wgt>
<wgt id='1306'> +7.1894854e+04 </wgt>
<wgt id='1307'> +7.1877187e+04 </wgt>
<wgt id='1308'> +7.2027901e+04 </wgt>
<wgt id='1309'> +7.1833220e+04 </wgt>
<wgt id='1310'> +7.1885878e+04 </wgt>
<wgt id='1311'> +7.1973012e+04 </wgt>
<wgt id='1312'> +7.2095643e+04 </wgt>
<wgt id='1313'> +7.1901744e+04 </wgt>
<wgt id='1314'> +7.1855205e+04 </wgt>
<wgt id='1315'> +7.2100545e+04 </wgt>
<wgt id='1316'> +7.1855875e+04 </wgt>
<wgt id='1317'> +7.1975771e+04 </wgt>
<wgt id='1318'> +7.1829450e+04 </wgt>
<wgt id='1319'> +7.1894291e+04 </wgt>
<wgt id='1320'> +7.2011615e+04 </wgt>
<wgt id='1321'> +7.1873697e+04 </wgt>
<wgt id='1322'> +7.1815262e+04 </wgt>
<wgt id='1323'> +7.2011904e+04 </wgt>
<wgt id='1324'> +7.0406754e+04 </wgt>
<wgt id='1325'> +7.3836894e+04 </wgt>
<wgt id='1326'> +7.0847381e+04 </wgt>
<wgt id='1327'> +6.4235860e+04 </wgt>
<wgt id='1328'> +7.6341712e+04 </wgt>
<wgt id='1329'> +7.3280413e+04 </wgt>
<wgt id='1330'> +8.0556010e+04 </wgt>
<wgt id='1331'> +7.4904629e+04 </wgt>
<wgt id='1332'> +7.9297758e+04 </wgt>
<wgt id='1333'> +7.6636498e+04 </wgt>
<wgt id='1334'> +7.3513887e+04 </wgt>
<wgt id='1335'> +7.3191607e+04 </wgt>
<wgt id='1336'> +7.6637304e+04 </wgt>
<wgt id='1337'> +7.7519364e+04 </wgt>
<wgt id='1338'> +7.5671564e+04 </wgt>
<wgt id='1339'> +7.3798401e+04 </wgt>
<wgt id='1340'> +7.2690476e+04 </wgt>
<wgt id='1341'> +7.4636745e+04 </wgt>
<wgt id='1342'> +8.1074095e+04 </wgt>
<wgt id='1343'> +7.8213521e+04 </wgt>
<wgt id='1344'> +7.7401389e+04 </wgt>
<wgt id='1345'> +7.7461136e+04 </wgt>
<wgt id='1346'> +7.9018589e+04 </wgt>
<wgt id='1347'> +7.8199268e+04 </wgt>
<wgt id='1348'> +6.8553974e+04 </wgt>
<wgt id='1349'> +7.6107168e+04 </wgt>
<wgt id='1350'> +7.7453479e+04 </wgt>
<wgt id='1351'> +7.4593966e+04 </wgt>
<wgt id='1352'> +7.9864699e+04 </wgt>
<wgt id='1353'> +8.1944559e+04 </wgt>
<wgt id='1354'> +7.6189254e+04 </wgt>
<wgt id='1355'> +7.8264080e+04 </wgt>
<wgt id='1356'> +7.9794973e+04 </wgt>
<wgt id='1357'> +7.3656202e+04 </wgt>
<wgt id='1358'> +7.9152431e+04 </wgt>
<wgt id='1359'> +7.5172345e+04 </wgt>
<wgt id='1360'> +8.1438251e+04 </wgt>
<wgt id='1361'> +8.1353087e+04 </wgt>
<wgt id='1362'> +8.0208968e+04 </wgt>
<wgt id='1363'> +7.5307431e+04 </wgt>
<wgt id='1364'> +7.7386273e+04 </wgt>
<wgt id='1365'> +7.5563349e+04 </wgt>
<wgt id='1366'> +7.7413249e+04 </wgt>
<wgt id='1367'> +8.0779478e+04 </wgt>
<wgt id='1368'> +7.5133438e+04 </wgt>
<wgt id='1369'> +7.2869289e+04 </wgt>
<wgt id='1370'> +7.1891801e+04 </wgt>
<wgt id='1371'> +7.8123105e+04 </wgt>
<wgt id='1372'> +8.2716542e+04 </wgt>
<wgt id='1373'> +7.4160867e+04 </wgt>
<wgt id='1374'> +7.7140491e+04 </wgt>
<wgt id='1375'> +7.7899418e+04 </wgt>
<wgt id='1376'> +7.6636470e+04 </wgt>
<wgt id='1377'> +7.9821457e+04 </wgt>
<wgt id='1378'> +7.4624161e+04 </wgt>
<wgt id='1379'> +7.6074247e+04 </wgt>
<wgt id='1380'> +7.8528256e+04 </wgt>
<wgt id='1381'> +7.7289809e+04 </wgt>
<wgt id='1382'> +6.9626572e+04 </wgt>
<wgt id='1383'> +7.4505125e+04 </wgt>
<wgt id='1384'> +7.8165433e+04 </wgt>
<wgt id='1385'> +6.6944550e+04 </wgt>
<wgt id='1386'> +7.8720216e+04 </wgt>
<wgt id='1387'> +7.5227418e+04 </wgt>
<wgt id='1388'> +7.7542664e+04 </wgt>
<wgt id='1389'> +7.8691583e+04 </wgt>
<wgt id='1390'> +6.7793585e+04 </wgt>
<wgt id='1391'> +7.3659826e+04 </wgt>
<wgt id='1392'> +7.3937057e+04 </wgt>
<wgt id='1393'> +7.0113232e+04 </wgt>
<wgt id='1394'> +7.5563349e+04 </wgt>
<wgt id='1395'> +7.6402582e+04 </wgt>
<wgt id='1396'> +8.0044972e+04 </wgt>
<wgt id='1397'> +7.9010389e+04 </wgt>
<wgt id='1398'> +7.6829321e+04 </wgt>
<wgt id='1399'> +7.6423052e+04 </wgt>
<wgt id='1400'> +7.8698698e+04 </wgt>
<wgt id='1401'> +7.5624340e+04 </wgt>
<wgt id='1402'> +7.8297629e+04 </wgt>
<wgt id='1403'> +7.9684509e+04 </wgt>
<wgt id='1404'> +7.8711372e+04 </wgt>
<wgt id='1405'> +7.1803570e+04 </wgt>
<wgt id='1406'> +7.6424458e+04 </wgt>
<wgt id='1407'> +8.0102600e+04 </wgt>
<wgt id='1408'> +7.7978944e+04 </wgt>
<wgt id='1409'> +7.3099531e+04 </wgt>
<wgt id='1410'> +7.6923893e+04 </wgt>
<wgt id='1411'> +7.6299747e+04 </wgt>
<wgt id='1412'> +7.8420604e+04 </wgt>
<wgt id='1413'> +7.8111049e+04 </wgt>
<wgt id='1414'> +6.7408285e+04 </wgt>
<wgt id='1415'> +7.3342223e+04 </wgt>
<wgt id='1416'> +7.2935374e+04 </wgt>
<wgt id='1417'> +7.2699216e+04 </wgt>
<wgt id='1418'> +8.0359148e+04 </wgt>
<wgt id='1419'> +7.7346354e+04 </wgt>
<wgt id='1420'> +7.0889112e+04 </wgt>
<wgt id='1421'> +7.8482854e+04 </wgt>
<wgt id='1422'> +7.6496108e+04 </wgt>
<wgt id='1423'> +7.5219261e+04 </wgt>
<wgt id='1424'> +7.1784820e+04 </wgt>
<wgt id='1425'> +7.7498128e+04 </wgt>
<wgt id='1426'> +7.6101610e+04 </wgt>
<wgt id='1427'> +7.7879295e+04 </wgt>
<wgt id='1428'> +7.8962585e+04 </wgt>
<wgt id='1429'> +7.5684661e+04 </wgt>
<wgt id='1430'> +7.6227956e+04 </wgt>
<wgt id='1431'> +7.6122977e+04 </wgt>
<wgt id='1432'> +7.6611992e+04 </wgt>
<wgt id='1433'> +7.5597483e+04 </wgt>
<wgt id='1434'> +7.6111104e+04 </wgt>
<wgt id='1435'> +7.5368070e+04 </wgt>
<wgt id='1436'> +7.4678853e+04 </wgt>
<wgt id='1437'> +7.7167433e+04 </wgt>
<wgt id='1438'> +7.5990328e+04 </wgt>
<wgt id='1439'> +7.4187685e+04 </wgt>
<wgt id='1440'> +7.6050765e+04 </wgt>
<wgt id='1441'> +7.5660693e+04 </wgt>
<wgt id='1442'> +7.5989664e+04 </wgt>
<wgt id='1443'> +7.5358005e+04 </wgt>
<wgt id='1444'> +7.5560300e+04 </wgt>
<wgt id='1445'> +7.5620880e+04 </wgt>
<wgt id='1446'> +7.6134720e+04 </wgt>
<wgt id='1447'> +7.5977242e+04 </wgt>
<wgt id='1448'> +7.6115946e+04 </wgt>
<wgt id='1449'> +7.6238488e+04 </wgt>
<wgt id='1450'> +7.6141080e+04 </wgt>
<wgt id='1451'> +7.5830277e+04 </wgt>
<wgt id='1452'> +7.5426504e+04 </wgt>
<wgt id='1453'> +7.5897923e+04 </wgt>
<wgt id='1454'> +7.6069978e+04 </wgt>
<wgt id='1455'> +7.6451831e+04 </wgt>
<wgt id='1456'> +7.6096503e+04 </wgt>
<wgt id='1457'> +7.5755645e+04 </wgt>
<wgt id='1458'> +7.6016465e+04 </wgt>
<wgt id='1459'> +7.6231877e+04 </wgt>
<wgt id='1460'> +7.6190571e+04 </wgt>
<wgt id='1461'> +7.6204549e+04 </wgt>
<wgt id='1462'> +7.6278073e+04 </wgt>
<wgt id='1463'> +7.5972186e+04 </wgt>
<wgt id='1464'> +7.6010551e+04 </wgt>
<wgt id='1465'> +7.6050314e+04 </wgt>
<wgt id='1466'> +7.5952723e+04 </wgt>
<wgt id='1467'> +7.6274223e+04 </wgt>
<wgt id='1468'> +7.6249948e+04 </wgt>
<wgt id='1469'> +7.6126288e+04 </wgt>
<wgt id='1470'> +7.6140399e+04 </wgt>
<wgt id='1471'> +7.6087232e+04 </wgt>
<wgt id='1472'> +7.6274354e+04 </wgt>
<wgt id='1473'> +7.6110643e+04 </wgt>
<wgt id='1474'> +7.6041081e+04 </wgt>
<wgt id='1475'> +7.6152590e+04 </wgt>
<wgt id='1476'> +7.6159282e+04 </wgt>
<wgt id='1477'> +7.6028511e+04 </wgt>
<wgt id='1478'> +7.6058711e+04 </wgt>
<wgt id='1479'> +7.6047374e+04 </wgt>
<wgt id='1480'> +7.6031405e+04 </wgt>
<wgt id='1481'> +7.6191565e+04 </wgt>
<wgt id='1482'> +7.5684661e+04 </wgt>
<wgt id='1483'> +7.6227956e+04 </wgt>
<wgt id='1484'> +7.6278123e+04 </wgt>
<wgt id='1485'> +7.7834017e+04 </wgt>
<wgt id='1486'> +7.8057524e+04 </wgt>
<wgt id='1487'> +7.4808648e+04 </wgt>
<wgt id='1488'> +7.6761856e+04 </wgt>
<wgt id='1489'> +7.4880462e+04 </wgt>
<wgt id='1490'> +7.0770106e+04 </wgt>
<wgt id='1491'> +7.3364036e+04 </wgt>
<wgt id='1492'> +7.2816244e+04 </wgt>
<wgt id='1493'> +7.7004154e+04 </wgt>
<wgt id='1494'> +7.6405610e+04 </wgt>
<wgt id='1495'> +7.1641845e+04 </wgt>
<wgt id='1496'> +7.2758893e+04 </wgt>
<wgt id='1497'> +7.2298935e+04 </wgt>
<wgt id='1498'> +7.9038198e+04 </wgt>
<wgt id='1499'> +7.6675397e+04 </wgt>
<wgt id='1500'> +7.1717815e+04 </wgt>
<wgt id='1501'> +7.2776280e+04 </wgt>
<wgt id='1502'> +7.7783924e+04 </wgt>
<wgt id='1503'> +7.3707402e+04 </wgt>
<wgt id='1504'> +7.4784523e+04 </wgt>
<wgt id='1505'> +7.6083697e+04 </wgt>
<wgt id='1506'> +7.4298296e+04 </wgt>
<wgt id='1507'> +7.5603470e+04 </wgt>
<wgt id='1508'> +7.1044441e+04 </wgt>
<wgt id='1509'> +8.0343111e+04 </wgt>
<wgt id='1510'> +7.9922043e+04 </wgt>
<wgt id='1511'> +7.9566318e+04 </wgt>
<wgt id='1512'> +7.4000347e+04 </wgt>
<wgt id='1513'> +7.3487472e+04 </wgt>
<wgt id='1514'> +7.5234373e+04 </wgt>
<wgt id='1515'> +7.5498888e+04 </wgt>
<wgt id='1516'> +7.5541599e+04 </wgt>
<wgt id='1517'> +7.8458098e+04 </wgt>
<wgt id='1518'> +7.6108008e+04 </wgt>
<wgt id='1519'> +7.5666289e+04 </wgt>
<wgt id='1520'> +7.8908742e+04 </wgt>
<wgt id='1521'> +7.6437432e+04 </wgt>
<wgt id='1522'> +7.7250238e+04 </wgt>
<wgt id='1523'> +7.5776678e+04 </wgt>
<wgt id='1524'> +7.9391840e+04 </wgt>
<wgt id='1525'> +7.6725033e+04 </wgt>
<wgt id='1526'> +7.7391100e+04 </wgt>
<wgt id='1527'> +7.7143900e+04 </wgt>
<wgt id='1528'> +7.7549481e+04 </wgt>
<wgt id='1529'> +7.6359582e+04 </wgt>
<wgt id='1530'> +7.3835097e+04 </wgt>
<wgt id='1531'> +7.6285374e+04 </wgt>
<wgt id='1532'> +7.1294705e+04 </wgt>
<wgt id='1533'> +7.9984841e+04 </wgt>
<wgt id='1534'> +7.5868070e+04 </wgt>
<wgt id='1535'> +7.4989199e+04 </wgt>
<wgt id='1536'> +7.6927180e+04 </wgt>
<wgt id='1537'> +7.9156284e+04 </wgt>
<wgt id='1538'> +7.7631361e+04 </wgt>
<wgt id='1539'> +7.6370567e+04 </wgt>
<wgt id='1540'> +7.6692545e+04 </wgt>
<wgt id='1541'> +7.7942471e+04 </wgt>
<wgt id='1542'> +7.6004084e+04 </wgt>
<wgt id='1543'> +7.8114094e+04 </wgt>
<wgt id='1544'> +7.6821808e+04 </wgt>
<wgt id='1545'> +7.9100163e+04 </wgt>
<wgt id='1546'> +7.6019592e+04 </wgt>
<wgt id='1547'> +7.8754160e+04 </wgt>
<wgt id='1548'> +7.5815625e+04 </wgt>
<wgt id='1549'> +7.8849783e+04 </wgt>
<wgt id='1550'> +7.9276243e+04 </wgt>
<wgt id='1551'> +7.8104682e+04 </wgt>
<wgt id='1552'> +7.9412722e+04 </wgt>
<wgt id='1553'> +7.8524658e+04 </wgt>
<wgt id='1554'> +7.7449058e+04 </wgt>
<wgt id='1555'> +7.4790284e+04 </wgt>
<wgt id='1556'> +7.3379192e+04 </wgt>
<wgt id='1557'> +7.4887912e+04 </wgt>
<wgt id='1558'> +7.7112545e+04 </wgt>
<wgt id='1559'> +7.9947456e+04 </wgt>
<wgt id='1560'> +7.9117964e+04 </wgt>
<wgt id='1561'> +8.0942498e+04 </wgt>
<wgt id='1562'> +7.7165469e+04 </wgt>
<wgt id='1563'> +7.6597406e+04 </wgt>
<wgt id='1564'> +7.8805036e+04 </wgt>
<wgt id='1565'> +7.8247683e+04 </wgt>
<wgt id='1566'> +7.3570367e+04 </wgt>
<wgt id='1567'> +7.8067010e+04 </wgt>
<wgt id='1568'> +7.5542928e+04 </wgt>
<wgt id='1569'> +7.6997404e+04 </wgt>
<wgt id='1570'> +7.7254597e+04 </wgt>
<wgt id='1571'> +7.6534736e+04 </wgt>
<wgt id='1572'> +7.4939513e+04 </wgt>
<wgt id='1573'> +7.7193683e+04 </wgt>
<wgt id='1574'> +7.2937894e+04 </wgt>
<wgt id='1575'> +7.4039841e+04 </wgt>
<wgt id='1576'> +7.7853300e+04 </wgt>
<wgt id='1577'> +7.3799639e+04 </wgt>
<wgt id='1578'> +7.7327920e+04 </wgt>
<wgt id='1579'> +7.1224961e+04 </wgt>
<wgt id='1580'> +7.8728422e+04 </wgt>
<wgt id='1581'> +8.0396732e+04 </wgt>
<wgt id='1582'> +7.8880472e+04 </wgt>
<wgt id='1583'> +7.5223660e+04 </wgt>
<wgt id='1584'> +6.7410910e+04 </wgt>
<wgt id='1585'> +7.2262187e+04 </wgt>
<wgt id='1586'> +6.7174868e+04 </wgt>
<wgt id='1587'> +7.5875669e+04 </wgt>
<wgt id='1588'> +7.5684661e+04 </wgt>
<wgt id='1589'> +7.5571792e+04 </wgt>
<wgt id='1590'> +7.5529704e+04 </wgt>
<wgt id='1591'> +7.6227956e+04 </wgt>
<wgt id='1592'> +7.5890385e+04 </wgt>
<wgt id='1593'> +7.6630787e+04 </wgt>
<wgt id='1594'> +7.4599039e+04 </wgt>
<wgt id='1595'> +7.5875189e+04 </wgt>
<wgt id='1596'> +7.5776537e+04 </wgt>
<wgt id='1597'> +7.8176420e+04 </wgt>
<wgt id='1598'> +7.5137607e+04 </wgt>
<wgt id='1599'> +7.7576437e+04 </wgt>
<wgt id='1600'> +7.3701994e+04 </wgt>
<wgt id='1601'> +7.9110136e+04 </wgt>
<wgt id='1602'> +7.0778123e+04 </wgt>
<wgt id='1603'> +8.1499476e+04 </wgt>
<wgt id='1604'> +7.6652047e+04 </wgt>
<wgt id='1605'> +7.8406789e+04 </wgt>
<wgt id='1606'> +7.4097139e+04 </wgt>
<wgt id='1607'> +7.8044459e+04 </wgt>
<wgt id='1608'> +7.5726809e+04 </wgt>
<wgt id='1609'> +7.6124369e+04 </wgt>
<wgt id='1610'> +7.7992229e+04 </wgt>
<wgt id='1611'> +7.4813165e+04 </wgt>
<wgt id='1612'> +7.8187239e+04 </wgt>
<wgt id='1613'> +7.2709156e+04 </wgt>
<wgt id='1614'> +7.7376338e+04 </wgt>
<wgt id='1615'> +7.5454754e+04 </wgt>
<wgt id='1616'> +7.7190317e+04 </wgt>
<wgt id='1617'> +7.4710631e+04 </wgt>
<wgt id='1618'> +7.6765670e+04 </wgt>
<wgt id='1619'> +7.6732375e+04 </wgt>
<wgt id='1620'> +7.5667740e+04 </wgt>
<wgt id='1621'> +7.6879788e+04 </wgt>
<wgt id='1622'> +7.7195575e+04 </wgt>
<wgt id='1623'> +7.4389663e+04 </wgt>
<wgt id='1624'> +7.6865412e+04 </wgt>
<wgt id='1625'> +7.5349530e+04 </wgt>
<wgt id='1626'> +7.5241593e+04 </wgt>
<wgt id='1627'> +7.6840362e+04 </wgt>
<wgt id='1628'> +7.7091691e+04 </wgt>
<wgt id='1629'> +7.6236921e+04 </wgt>
<wgt id='1630'> +7.5231269e+04 </wgt>
<wgt id='1631'> +7.6895258e+04 </wgt>
<wgt id='1632'> +7.6844924e+04 </wgt>
<wgt id='1633'> +7.5519016e+04 </wgt>
<wgt id='1634'> +7.7826411e+04 </wgt>
<wgt id='1635'> +7.4906009e+04 </wgt>
<wgt id='1636'> +7.6562578e+04 </wgt>
<wgt id='1637'> +7.6406829e+04 </wgt>
<wgt id='1638'> +7.3062846e+04 </wgt>
<wgt id='1639'> +7.8359329e+04 </wgt>
<wgt id='1640'> +7.7745615e+04 </wgt>
<wgt id='1641'> +7.5112091e+04 </wgt>
<wgt id='1642'> +7.5061881e+04 </wgt>
<wgt id='1643'> +7.7479931e+04 </wgt>
<wgt id='1644'> +7.6434255e+04 </wgt>
<wgt id='1645'> +7.5110010e+04 </wgt>
<wgt id='1646'> +7.6192664e+04 </wgt>
<wgt id='1647'> +7.7437012e+04 </wgt>
<wgt id='1648'> +7.7727978e+04 </wgt>
<wgt id='1649'> +7.5347897e+04 </wgt>
<wgt id='1650'> +7.7118585e+04 </wgt>
<wgt id='1651'> +7.6169816e+04 </wgt>
<wgt id='1652'> +7.5421064e+04 </wgt>
<wgt id='1653'> +7.5988993e+04 </wgt>
<wgt id='1654'> +7.7334427e+04 </wgt>
<wgt id='1655'> +7.8109944e+04 </wgt>
<wgt id='1656'> +8.1446408e+04 </wgt>
<wgt id='1657'> +8.0344354e+04 </wgt>
<wgt id='1658'> +7.9832433e+04 </wgt>
<wgt id='1659'> +8.3250548e+04 </wgt>
<wgt id='1660'> +8.0320624e+04 </wgt>
<wgt id='1661'> +8.3617636e+04 </wgt>
<wgt id='1662'> +7.8668391e+04 </wgt>
<wgt id='1663'> +7.9212761e+04 </wgt>
<wgt id='1664'> +8.0387551e+04 </wgt>
<wgt id='1665'> +7.9979168e+04 </wgt>
<wgt id='1666'> +8.1166225e+04 </wgt>
<wgt id='1667'> +8.0900590e+04 </wgt>
<wgt id='1668'> +8.1693899e+04 </wgt>
<wgt id='1669'> +8.3727700e+04 </wgt>
<wgt id='1670'> +7.7479765e+04 </wgt>
<wgt id='1671'> +8.1824324e+04 </wgt>
<wgt id='1672'> +8.1762250e+04 </wgt>
<wgt id='1673'> +7.9921859e+04 </wgt>
<wgt id='1674'> +8.2396581e+04 </wgt>
<wgt id='1675'> +8.2240898e+04 </wgt>
<wgt id='1676'> +8.0790770e+04 </wgt>
<wgt id='1677'> +8.1588542e+04 </wgt>
<wgt id='1678'> +8.1614966e+04 </wgt>
<wgt id='1679'> +7.9357419e+04 </wgt>
<wgt id='1680'> +8.4160878e+04 </wgt>
<wgt id='1681'> +8.4157272e+04 </wgt>
<wgt id='1682'> +7.7862377e+04 </wgt>
<wgt id='1683'> +8.0991242e+04 </wgt>
<wgt id='1684'> +8.1623261e+04 </wgt>
<wgt id='1685'> +8.0544690e+04 </wgt>
<wgt id='1686'> +8.1263209e+04 </wgt>
<wgt id='1687'> +8.3255020e+04 </wgt>
<wgt id='1688'> +7.8420497e+04 </wgt>
<wgt id='1689'> +8.1406177e+04 </wgt>
<wgt id='1690'> +8.1538142e+04 </wgt>
<wgt id='1691'> +8.2049935e+04 </wgt>
<wgt id='1692'> +7.9721334e+04 </wgt>
<wgt id='1693'> +8.6056933e+04 </wgt>
<wgt id='1694'> +7.7932319e+04 </wgt>
<wgt id='1695'> +7.9467251e+04 </wgt>
<wgt id='1696'> +8.2791559e+04 </wgt>
<wgt id='1697'> +8.2576457e+04 </wgt>
<wgt id='1698'> +7.9933113e+04 </wgt>
<wgt id='1699'> +8.0140841e+04 </wgt>
<wgt id='1700'> +8.2559335e+04 </wgt>
<wgt id='1701'> +7.9939157e+04 </wgt>
<wgt id='1702'> +8.3117599e+04 </wgt>
<wgt id='1703'> +8.1897590e+04 </wgt>
<wgt id='1704'> +8.1938435e+04 </wgt>
<wgt id='1705'> +8.0336129e+04 </wgt>
<wgt id='1706'> +8.2047742e+04 </wgt>
<wgt id='1707'> +7.8977344e+04 </wgt>
<wgt id='1708'> +8.3648388e+04 </wgt>
<wgt id='1709'> +8.3000421e+04 </wgt>
<wgt id='1710'> +8.0055347e+04 </wgt>
<wgt id='1711'> +8.0059435e+04 </wgt>
<wgt id='1712'> +8.1290180e+04 </wgt>
<wgt id='1713'> +8.1554203e+04 </wgt>
<wgt id='1714'> +8.1328955e+04 </wgt>
<wgt id='1715'> +7.5249621e+04 </wgt>
<wgt id='1716'> +8.0245412e+04 </wgt>
<wgt id='1717'> +6.8808306e+04 </wgt>
<wgt id='1718'> +6.8524529e+04 </wgt>
<wgt id='1719'> +6.9167538e+04 </wgt>
<wgt id='1720'> +6.8129960e+04 </wgt>
<wgt id='1721'> +6.9429719e+04 </wgt>
<wgt id='1722'> +6.8339070e+04 </wgt>
<wgt id='1723'> +6.9579433e+04 </wgt>
<wgt id='1724'> +6.9593012e+04 </wgt>
<wgt id='1725'> +6.8171377e+04 </wgt>
<wgt id='1726'> +6.8773023e+04 </wgt>
<wgt id='1727'> +6.8843936e+04 </wgt>
<wgt id='1728'> +6.7662516e+04 </wgt>
<wgt id='1729'> +6.9926087e+04 </wgt>
<wgt id='1730'> +6.9186129e+04 </wgt>
<wgt id='1731'> +6.8539750e+04 </wgt>
<wgt id='1732'> +6.9667970e+04 </wgt>
<wgt id='1733'> +6.9667970e+04 </wgt>
<wgt id='1734'> +6.8373420e+04 </wgt>
<wgt id='1735'> +6.9099225e+04 </wgt>
<wgt id='1736'> +6.8002981e+04 </wgt>
<wgt id='1737'> +6.9927786e+04 </wgt>
<wgt id='1738'> +6.8909924e+04 </wgt>
<wgt id='1739'> +6.8550927e+04 </wgt>
<wgt id='1740'> +6.8752995e+04 </wgt>
<wgt id='1741'> +6.8936585e+04 </wgt>
<wgt id='1742'> +6.8959558e+04 </wgt>
<wgt id='1743'> +6.8647047e+04 </wgt>
<wgt id='1744'> +6.9234980e+04 </wgt>
<wgt id='1745'> +6.7644247e+04 </wgt>
<wgt id='1746'> +6.8513273e+04 </wgt>
<wgt id='1747'> +6.8945159e+04 </wgt>
<wgt id='1748'> +6.9375697e+04 </wgt>
<wgt id='1749'> +6.7047477e+04 </wgt>
<wgt id='1750'> +6.9228275e+04 </wgt>
<wgt id='1751'> +6.8360132e+04 </wgt>
<wgt id='1752'> +6.8691371e+04 </wgt>
<wgt id='1753'> +6.8973785e+04 </wgt>
<wgt id='1754'> +6.9079844e+04 </wgt>
<wgt id='1755'> +6.8652873e+04 </wgt>
<wgt id='1756'> +6.7988895e+04 </wgt>
<wgt id='1757'> +7.0842760e+04 </wgt>
<wgt id='1758'> +6.8924927e+04 </wgt>
<wgt id='1759'> +6.8601074e+04 </wgt>
<wgt id='1760'> +7.0146875e+04 </wgt>
<wgt id='1761'> +6.7488511e+04 </wgt>
<wgt id='1762'> +6.8771277e+04 </wgt>
<wgt id='1763'> +6.8577580e+04 </wgt>
<wgt id='1764'> +6.8538107e+04 </wgt>
<wgt id='1765'> +6.9956477e+04 </wgt>
<wgt id='1766'> +6.8706187e+04 </wgt>
<wgt id='1767'> +6.9005519e+04 </wgt>
<wgt id='1768'> +6.8533761e+04 </wgt>
<wgt id='1769'> +6.9031376e+04 </wgt>
<wgt id='1770'> +6.8708477e+04 </wgt>
<wgt id='1771'> +6.8723029e+04 </wgt>
<wgt id='1772'> +6.9264964e+04 </wgt>
<wgt id='1773'> +6.8194109e+04 </wgt>
<wgt id='1774'> +6.7356960e+04 </wgt>
<wgt id='1775'> +6.9749795e+04 </wgt>
<wgt id='1776'> +6.8012385e+04 </wgt>
<wgt id='1777'> +6.9173888e+04 </wgt>
<wgt id='1778'> +6.7759447e+04 </wgt>
<wgt id='1779'> +6.8797112e+04 </wgt>
<wgt id='1780'> +6.9772825e+04 </wgt>
<wgt id='1781'> +6.9558009e+04 </wgt>
<wgt id='1782'> +6.8808306e+04 </wgt>
<wgt id='1783'> +6.8841798e+04 </wgt>
<wgt id='1784'> +7.2550399e+04 </wgt>
<wgt id='1785'> +7.2449433e+04 </wgt>
<wgt id='1786'> +6.8763576e+04 </wgt>
<wgt id='1787'> +7.2661792e+04 </wgt>
<wgt id='1788'> +7.2855852e+04 </wgt>
<wgt id='1789'> +7.2569047e+04 </wgt>
<wgt id='1790'> +7.2406758e+04 </wgt>
<wgt id='1791'> +7.2699534e+04 </wgt>
<wgt id='1792'> +7.2145392e+04 </wgt>
<wgt id='1793'> +7.2654307e+04 </wgt>
<wgt id='1794'> +7.3805750e+04 </wgt>
<wgt id='1795'> +7.2380489e+04 </wgt>
<wgt id='1796'> +7.2549646e+04 </wgt>
<wgt id='1797'> +7.3259445e+04 </wgt>
<wgt id='1798'> +7.2903916e+04 </wgt>
<wgt id='1799'> +7.3945873e+04 </wgt>
<wgt id='1800'> +7.3403017e+04 </wgt>
<wgt id='1801'> +7.3905985e+04 </wgt>
<wgt id='1802'> +7.4292602e+04 </wgt>
<wgt id='1803'> +7.2803386e+04 </wgt>
<wgt id='1804'> +7.2313512e+04 </wgt>
<wgt id='1805'> +7.0890742e+04 </wgt>
<wgt id='1806'> +7.2951157e+04 </wgt>
<wgt id='1807'> +7.2591300e+04 </wgt>
<wgt id='1808'> +7.2810230e+04 </wgt>
<wgt id='1809'> +7.2163657e+04 </wgt>
<wgt id='1810'> +7.2351546e+04 </wgt>
<wgt id='1811'> +7.2404855e+04 </wgt>
<wgt id='1812'> +7.2242277e+04 </wgt>
<wgt id='1813'> +7.1143179e+04 </wgt>
<wgt id='1814'> +7.2273136e+04 </wgt>
<wgt id='1815'> +7.2208517e+04 </wgt>
<wgt id='1816'> +7.2523498e+04 </wgt>
<wgt id='1817'> +7.2612767e+04 </wgt>
<wgt id='1818'> +7.2577480e+04 </wgt>
<wgt id='1819'> +7.2214282e+04 </wgt>
<wgt id='1820'> +7.2508554e+04 </wgt>
<wgt id='1821'> +7.1741857e+04 </wgt>
<wgt id='1822'> +7.2167029e+04 </wgt>
<wgt id='1823'> +7.2488497e+04 </wgt>
<wgt id='1824'> +7.3181431e+04 </wgt>
<wgt id='1825'> +7.1721007e+04 </wgt>
<wgt id='1826'> +7.3680306e+04 </wgt>
<wgt id='1827'> +6.9824834e+04 </wgt>
<wgt id='1828'> +7.0142171e+04 </wgt>
<wgt id='1829'> +6.9514990e+04 </wgt>
<wgt id='1830'> +6.9646082e+04 </wgt>
<wgt id='1831'> +7.0008887e+04 </wgt>
<wgt id='1832'> +6.9851383e+04 </wgt>
<wgt id='1833'> +6.9803710e+04 </wgt>
<wgt id='1834'> +6.8996244e+04 </wgt>
<wgt id='1835'> +7.0630353e+04 </wgt>
<wgt id='1836'> +7.0565697e+04 </wgt>
<wgt id='1837'> +6.9079193e+04 </wgt>
<wgt id='1838'> +7.0540669e+04 </wgt>
<wgt id='1839'> +6.9110194e+04 </wgt>
<wgt id='1840'> +6.9547323e+04 </wgt>
<wgt id='1841'> +7.0114586e+04 </wgt>
<wgt id='1842'> +6.9869424e+04 </wgt>
<wgt id='1843'> +6.9952271e+04 </wgt>
<wgt id='1844'> +6.9976409e+04 </wgt>
<wgt id='1845'> +6.9651904e+04 </wgt>
<wgt id='1846'> +7.0273430e+04 </wgt>
<wgt id='1847'> +6.9322468e+04 </wgt>
<wgt id='1848'> +6.9952846e+04 </wgt>
<wgt id='1849'> +6.9596671e+04 </wgt>
<wgt id='1850'> +7.0703787e+04 </wgt>
<wgt id='1851'> +6.8954239e+04 </wgt>
<wgt id='1852'> +7.2078038e+04 </wgt>
<wgt id='1853'> +6.7478700e+04 </wgt>
<wgt id='1854'> +7.1824618e+04 </wgt>
<wgt id='1855'> +6.7902281e+04 </wgt>
<wgt id='1856'> +6.9735238e+04 </wgt>
<wgt id='1857'> +6.9717617e+04 </wgt>
<wgt id='1858'> +6.9646214e+04 </wgt>
<wgt id='1859'> +6.9655412e+04 </wgt>
<wgt id='1860'> +6.9740981e+04 </wgt>
<wgt id='1861'> +7.0039805e+04 </wgt>
<wgt id='1862'> +6.9055820e+04 </wgt>
<wgt id='1863'> +6.9958543e+04 </wgt>
<wgt id='1864'> +6.9485468e+04 </wgt>
<wgt id='1865'> +6.9182192e+04 </wgt>
<wgt id='1866'> +6.9598870e+04 </wgt>
<wgt id='1867'> +6.9694901e+04 </wgt>
<wgt id='1868'> +6.9950019e+04 </wgt>
<wgt id='1869'> +6.9935834e+04 </wgt>
<wgt id='1870'> +6.9512127e+04 </wgt>
<wgt id='1871'> +6.9767795e+04 </wgt>
<wgt id='1872'> +6.9439023e+04 </wgt>
<wgt id='1873'> +6.9629201e+04 </wgt>
<wgt id='1874'> +6.9645775e+04 </wgt>
<wgt id='1875'> +6.9815290e+04 </wgt>
<wgt id='1876'> +6.9874006e+04 </wgt>
<wgt id='1877'> +6.9324403e+04 </wgt>
<wgt id='1878'> +6.9850870e+04 </wgt>
<wgt id='1879'> +7.0397229e+04 </wgt>
<wgt id='1880'> +7.0099965e+04 </wgt>
<wgt id='1881'> +6.9556937e+04 </wgt>
<wgt id='1882'> +6.9660190e+04 </wgt>
<wgt id='1883'> +7.0019658e+04 </wgt>
<wgt id='1884'> +6.8450892e+04 </wgt>
<wgt id='1885'> +6.9265351e+04 </wgt>
<wgt id='1886'> +8.0056567e+04 </wgt>
<wgt id='1887'> +8.3453019e+04 </wgt>
<wgt id='1888'> +5.7420548e+04 </wgt>
<wgt id='1889'> +7.3948662e+04 </wgt>
</rwgt>
</event>
<event npLO=" -1 " npNLO=" 0 ">
 5      1 +7.4519530e+04 2.31491250e+01 7.55820760e-03 1.20080670e-01
       -2 -1    0    0    0  501 +0.0000000000e+00 +0.0000000000e+00 +2.9105592081e+00 2.9105592081e+00 0.0000000000e+00 0.0000e+00 1.0000e+00
        1 -1    0    0  501    0 +0.0000000000e+00 +0.0000000000e+00 -5.6457827697e+02 5.6457827697e+02 0.0000000000e+00 0.0000e+00 -1.0000e+00
      -24  2    1    2    0    0 +0.0000000000e+00 +0.0000000000e+00 -5.6166771776e+02 5.6748883618e+02 8.1073756611e+01 0.0000e+00 0.0000e+00
       15  1    3    3    0    0 +4.9816484902e+00 +1.4803312151e+01 -5.4265737719e+02 5.4288501694e+02 1.7770000000e+00 0.0000e+00 -1.0000e+00
      -16  1    3    3    0    0 -4.9816484902e+00 -1.4803312151e+01 -1.9010340569e+01 2.4603819233e+01 0.0000000000e+00 0.0000e+00 1.0000e+00
#aMCatNLO 1  0  0  2  1 0.63813646E+01 0.00000000E+00 -9  5  0 0.00000000E+00 0.00000000E+00 0.00000000E+00 0.00000000E+00 0.00000000E+00
<rwgt>
<wgt id='1001'> +7.4519530e+04 </wgt>
<wgt id='1002'> +7.4442860e+04 </wgt>
<wgt id='1003'> +7.4610775e+04 </wgt>
<wgt id='1004'> +7.9988217e+04 </wgt>
<wgt id='1005'> +8.0122020e+04 </wgt>
<wgt id='1006'> +7.9817299e+04 </wgt>
<wgt id='1007'> +6.8179808e+04 </wgt>
<wgt id='1008'> +6.7905540e+04 </wgt>
<wgt id='1009'> +6.8517224e+04 </wgt>
<wgt id='1010'> +7.4519530e+04 </wgt>
<wgt id='1011'> +7.4625248e+04 </wgt>
<wgt id='1012'> +7.4574625e+04 </wgt>
<wgt id='1013'> +7.4202365e+04 </wgt>
<wgt id='1014'> +7.4653264e+04 </wgt>
<wgt id='1015'> +7.4300538e+04 </wgt>
<wgt id='1016'> +7.4433326e+04 </wgt>
<wgt id='1017'> +7.4312102e+04 </wgt>
<wgt id='1018'> +7.4064526e+04 </wgt>
<wgt id='1019'> +7.4605093e+04 </wgt>
<wgt id='1020'> +7.4338329e+04 </wgt>
<wgt id='1021'> +7.4553744e+04 </wgt>
<wgt id='1022'> +7.4666887e+04 </wgt>
<wgt id='1023'> +7.4658776e+04 </wgt>
<wgt id='1024'> +7.4602069e+04 </wgt>
<wgt id='1025'> +7.4774598e+04 </wgt>
<wgt id='1026'> +7.4471579e+04 </wgt>
<wgt id='1027'> +7.4601345e+04 </wgt>
<wgt id='1028'> +7.4354161e+04 </wgt>
<wgt id='1029'> +7.4688681e+04 </wgt>
<wgt id='1030'> +7.4418409e+04 </wgt>
<wgt id='1031'> +7.4581977e+04 </wgt>
<wgt id='1032'> +7.4673738e+04 </wgt>
<wgt id='1033'> +7.4420008e+04 </wgt>
<wgt id='1034'> +7.4692610e+04 </wgt>
<wgt id='1035'> +7.4248583e+04 </wgt>
<wgt id='1036'> +7.4410487e+04 </wgt>
<wgt id='1037'> +7.4793010e+04 </wgt>
<wgt id='1038'> +7.4513193e+04 </wgt>
<wgt id='1039'> +7.5182008e+04 </wgt>
<wgt id='1040'> +7.4282849e+04 </wgt>
<wgt id='1041'> +7.5368065e+04 </wgt>
<wgt id='1042'> +7.4471316e+04 </wgt>
<wgt id='1043'> +7.4564909e+04 </wgt>
<wgt id='1044'> +7.4702124e+04 </wgt>
<wgt id='1045'> +7.4287597e+04 </wgt>
<wgt id='1046'> +7.4225552e+04 </wgt>
<wgt id='1047'> +7.4692833e+04 </wgt>
<wgt id='1048'> +7.4403559e+04 </wgt>
<wgt id='1049'> +7.4522318e+04 </wgt>
<wgt id='1050'> +7.4511613e+04 </wgt>
<wgt id='1051'> +7.4631997e+04 </wgt>
<wgt id='1052'> +7.4675181e+04 </wgt>
<wgt id='1053'> +7.4321919e+04 </wgt>
<wgt id='1054'> +7.4330256e+04 </wgt>
<wgt id='1055'> +7.4507422e+04 </wgt>
<wgt id='1056'> +7.4545145e+04 </wgt>
<wgt id='1057'> +7.4307222e+04 </wgt>
<wgt id='1058'> +7.4424725e+04 </wgt>
<wgt id='1059'> +7.4478498e+04 </wgt>
<wgt id='1060'> +7.4352360e+04 </wgt>
<wgt id='1061'> +7.4410150e+04 </wgt>
<wgt id='1062'> +7.4596245e+04 </wgt>
<wgt id='1063'> +7.4841959e+04 </wgt>
<wgt id='1064'> +7.4751542e+04 </wgt>
<wgt id='1065'> +7.4718495e+04 </wgt>
<wgt id='1066'> +7.4481110e+04 </wgt>
<wgt id='1067'> +7.4615562e+04 </wgt>
<wgt id='1068'> +7.4536976e+04 </wgt>
<wgt id='1069'> +7.4489843e+04 </wgt>
<wgt id='1070'> +7.4623506e+04 </wgt>
<wgt id='1071'> +7.4737411e+04 </wgt>
<wgt id='1072'> +7.4616915e+04 </wgt>
<wgt id='1073'> +7.4372044e+04 </wgt>
<wgt id='1074'> +7.4405051e+04 </wgt>
<wgt id='1075'> +7.4720918e+04 </wgt>
<wgt id='1076'> +7.4555506e+04 </wgt>
<wgt id='1077'> +7.4578960e+04 </wgt>
<wgt id='1078'> +7.4473096e+04 </wgt>
<wgt id='1079'> +7.4602274e+04 </wgt>
<wgt id='1080'> +7.4646105e+04 </wgt>
<wgt id='1081'> +7.4600159e+04 </wgt>
<wgt id='1082'> +7.4533449e+04 </wgt>
<wgt id='1083'> +7.4434007e+04 </wgt>
<wgt id='1084'> +7.4425789e+04 </wgt>
<wgt id='1085'> +7.4516893e+04 </wgt>
<wgt id='1086'> +7.4555152e+04 </wgt>
<wgt id='1087'> +7.4553699e+04 </wgt>
<wgt id='1088'> +7.4458930e+04 </wgt>
<wgt id='1089'> +7.4503621e+04 </wgt>
<wgt id='1090'> +7.4539629e+04 </wgt>
<wgt id='1091'> +7.4584052e+04 </wgt>
<wgt id='1092'> +7.4560376e+04 </wgt>
<wgt id='1093'> +7.4561746e+04 </wgt>
<wgt id='1094'> +7.4480597e+04 </wgt>
<wgt id='1095'> +7.4565302e+04 </wgt>
<wgt id='1096'> +7.4523961e+04 </wgt>
<wgt id='1097'> +7.4601069e+04 </wgt>
<wgt id='1098'> +7.4585998e+04 </wgt>
<wgt id='1099'> +7.4552226e+04 </wgt>
<wgt id='1100'> +7.4525448e+04 </wgt>
<wgt id='1101'> +7.4487146e+04 </wgt>
<wgt id='1102'> +7.4520949e+04 </wgt>
<wgt id='1103'> +7.4504558e+04 </wgt>
<wgt id='1104'> +7.4512515e+04 </wgt>
<wgt id='1105'> +7.4488756e+04 </wgt>
<wgt id='1106'> +7.4519335e+04 </wgt>
<wgt id='1107'> +7.4495106e+04 </wgt>
<wgt id='1108'> +7.4532428e+04 </wgt>
<wgt id='1109'> +7.4592739e+04 </wgt>
<wgt id='1110'> +7.4519528e+04 </wgt>
<wgt id='1111'> +7.3862694e+04 </wgt>
<wgt id='1112'> +7.5083101e+04 </wgt>
<wgt id='1113'> +7.4519528e+04 </wgt>
<wgt id='1114'> +7.6710834e+04 </wgt>
<wgt id='1115'> +7.6177902e+04 </wgt>
<wgt id='1116'> +7.3235636e+04 </wgt>
<wgt id='1117'> +7.3681454e+04 </wgt>
<wgt id='1118'> +7.4589386e+04 </wgt>
<wgt id='1119'> +7.4991096e+04 </wgt>
<wgt id='1120'> +7.6122045e+04 </wgt>
<wgt id='1121'> +7.4551725e+04 </wgt>
<wgt id='1122'> +7.6183134e+04 </wgt>
<wgt id='1123'> +6.9945776e+04 </wgt>
<wgt id='1124'> +7.3330642e+04 </wgt>
<wgt id='1125'> +7.2836633e+04 </wgt>
<wgt id='1126'> +7.3017293e+04 </wgt>
<wgt id='1127'> +7.5623157e+04 </wgt>
<wgt id='1128'> +7.4925576e+04 </wgt>
<wgt id='1129'> +7.3295148e+04 </wgt>
<wgt id='1130'> +7.5021506e+04 </wgt>
<wgt id='1131'> +7.4754416e+04 </wgt>
<wgt id='1132'> +7.5002878e+04 </wgt>
<wgt id='1133'> +7.3602381e+04 </wgt>
<wgt id='1134'> +7.6137985e+04 </wgt>
<wgt id='1135'> +7.7244468e+04 </wgt>
<wgt id='1136'> +7.5421154e+04 </wgt>
<wgt id='1137'> +7.2841378e+04 </wgt>
<wgt id='1138'> +7.4035952e+04 </wgt>
<wgt id='1139'> +7.5085238e+04 </wgt>
<wgt id='1140'> +7.5900508e+04 </wgt>
<wgt id='1141'> +7.5589656e+04 </wgt>
<wgt id='1142'> +7.3802936e+04 </wgt>
<wgt id='1143'> +7.7124991e+04 </wgt>
<wgt id='1144'> +7.7198139e+04 </wgt>
<wgt id='1145'> +7.4642643e+04 </wgt>
<wgt id='1146'> +7.6179923e+04 </wgt>
<wgt id='1147'> +7.3432255e+04 </wgt>
<wgt id='1148'> +7.3087256e+04 </wgt>
<wgt id='1149'> +7.3958729e+04 </wgt>
<wgt id='1150'> +7.2163349e+04 </wgt>
<wgt id='1151'> +7.3466402e+04 </wgt>
<wgt id='1152'> +7.3876629e+04 </wgt>
<wgt id='1153'> +7.3773368e+04 </wgt>
<wgt id='1154'> +7.5795734e+04 </wgt>
<wgt id='1155'> +7.5195668e+04 </wgt>
<wgt id='1156'> +7.5065649e+04 </wgt>
<wgt id='1157'> +7.4667321e+04 </wgt>
<wgt id='1158'> +7.2743981e+04 </wgt>
<wgt id='1159'> +7.3569225e+04 </wgt>
<wgt id='1160'> +7.6099731e+04 </wgt>
<wgt id='1161'> +7.6641754e+04 </wgt>
<wgt id='1162'> +7.7999633e+04 </wgt>
<wgt id='1163'> +7.3292522e+04 </wgt>
<wgt id='1164'> +7.5481763e+04 </wgt>
<wgt id='1165'> +7.4211197e+04 </wgt>
<wgt id='1166'> +7.6228845e+04 </wgt>
<wgt id='1167'> +7.6808003e+04 </wgt>
<wgt id='1168'> +7.5370156e+04 </wgt>
<wgt id='1169'> +7.3862376e+04 </wgt>
<wgt id='1170'> +7.4569062e+04 </wgt>
<wgt id='1171'> +7.6024998e+04 </wgt>
<wgt id='1172'> +7.5211608e+04 </wgt>
<wgt id='1173'> +7.6563303e+04 </wgt>
<wgt id='1174'> +7.6122547e+04 </wgt>
<wgt id='1175'> +7.4773690e+04 </wgt>
<wgt id='1176'> +7.3731939e+04 </wgt>
<wgt id='1177'> +7.4091061e+04 </wgt>
<wgt id='1178'> +7.4639883e+04 </wgt>
<wgt id='1179'> +7.3858870e+04 </wgt>
<wgt id='1180'> +7.2907340e+04 </wgt>
<wgt id='1181'> +7.5044878e+04 </wgt>
<wgt id='1182'> +7.4670956e+04 </wgt>
<wgt id='1183'> +7.4926091e+04 </wgt>
<wgt id='1184'> +7.6535308e+04 </wgt>
<wgt id='1185'> +7.4726753e+04 </wgt>
<wgt id='1186'> +7.1989606e+04 </wgt>
<wgt id='1187'> +7.2326303e+04 </wgt>
<wgt id='1188'> +7.3134441e+04 </wgt>
<wgt id='1189'> +7.5464788e+04 </wgt>
<wgt id='1190'> +7.3583575e+04 </wgt>
<wgt id='1191'> +7.6833933e+04 </wgt>
<wgt id='1192'> +7.3479490e+04 </wgt>
<wgt id='1193'> +7.2757936e+04 </wgt>
<wgt id='1194'> +7.4338897e+04 </wgt>
<wgt id='1195'> +7.3295148e+04 </wgt>
<wgt id='1196'> +7.0390283e+04 </wgt>
<wgt id='1197'> +7.3833351e+04 </wgt>
<wgt id='1198'> +7.4309230e+04 </wgt>
<wgt id='1199'> +7.7933446e+04 </wgt>
<wgt id='1200'> +7.4653129e+04 </wgt>
<wgt id='1201'> +7.2933550e+04 </wgt>
<wgt id='1202'> +6.6269586e+04 </wgt>
<wgt id='1203'> +7.3936117e+04 </wgt>
<wgt id='1204'> +7.5352683e+04 </wgt>
<wgt id='1205'> +7.3370506e+04 </wgt>
<wgt id='1206'> +7.3572937e+04 </wgt>
<wgt id='1207'> +7.6603863e+04 </wgt>
<wgt id='1208'> +7.3517703e+04 </wgt>
<wgt id='1209'> +7.7310521e+04 </wgt>
<wgt id='1210'> +7.3327574e+04 </wgt>
<wgt id='1211'> +7.3816068e+04 </wgt>
<wgt id='1212'> +7.3459087e+04 </wgt>
<wgt id='1213'> +7.5915611e+04 </wgt>
<wgt id='1214'> +7.4474236e+04 </wgt>
<wgt id='1215'> +7.1805577e+04 </wgt>
<wgt id='1216'> +7.2172207e+04 </wgt>
<wgt id='1217'> +7.2537913e+04 </wgt>
<wgt id='1218'> +7.3560903e+04 </wgt>
<wgt id='1219'> +7.4569947e+04 </wgt>
<wgt id='1220'> +7.4896232e+04 </wgt>
<wgt id='1221'> +7.5637479e+04 </wgt>
<wgt id='1222'> +7.6005690e+04 </wgt>
<wgt id='1223'> +7.3520757e+04 </wgt>
<wgt id='1224'> +7.3319907e+04 </wgt>
<wgt id='1225'> +7.3816507e+04 </wgt>
<wgt id='1226'> +7.3308162e+04 </wgt>
<wgt id='1227'> +7.3916940e+04 </wgt>
<wgt id='1228'> +7.3421830e+04 </wgt>
<wgt id='1229'> +7.3253681e+04 </wgt>
<wgt id='1230'> +7.3529877e+04 </wgt>
<wgt id='1231'> +7.3527775e+04 </wgt>
<wgt id='1232'> +7.3733649e+04 </wgt>
<wgt id='1233'> +7.3264301e+04 </wgt>
<wgt id='1234'> +7.3300561e+04 </wgt>
<wgt id='1235'> +7.3580590e+04 </wgt>
<wgt id='1236'> +7.3700871e+04 </wgt>
<wgt id='1237'> +7.3651237e+04 </wgt>
<wgt id='1238'> +7.3364793e+04 </wgt>
<wgt id='1239'> +7.3517672e+04 </wgt>
<wgt id='1240'> +7.3560068e+04 </wgt>
<wgt id='1241'> +7.3712815e+04 </wgt>
<wgt id='1242'> +7.3600378e+04 </wgt>
<wgt id='1243'> +7.3476591e+04 </wgt>
<wgt id='1244'> +7.3719346e+04 </wgt>
<wgt id='1245'> +7.3557849e+04 </wgt>
<wgt id='1246'> +7.3595152e+04 </wgt>
<wgt id='1247'> +7.3799151e+04 </wgt>
<wgt id='1248'> +7.3263483e+04 </wgt>
<wgt id='1249'> +7.3481656e+04 </wgt>
<wgt id='1250'> +7.3437008e+04 </wgt>
<wgt id='1251'> +7.3670585e+04 </wgt>
<wgt id='1252'> +7.4018434e+04 </wgt>
<wgt id='1253'> +7.2656195e+04 </wgt>
<wgt id='1254'> +7.3160736e+04 </wgt>
<wgt id='1255'> +7.3756075e+04 </wgt>
<wgt id='1256'> +7.3510781e+04 </wgt>
<wgt id='1257'> +7.3432180e+04 </wgt>
<wgt id='1258'> +7.3796262e+04 </wgt>
<wgt id='1259'> +7.3553887e+04 </wgt>
<wgt id='1260'> +7.3494694e+04 </wgt>
<wgt id='1261'> +7.3499611e+04 </wgt>
<wgt id='1262'> +7.3607919e+04 </wgt>
<wgt id='1263'> +7.3420267e+04 </wgt>
<wgt id='1264'> +7.3824310e+04 </wgt>
<wgt id='1265'> +7.3423356e+04 </wgt>
<wgt id='1266'> +7.3402896e+04 </wgt>
<wgt id='1267'> +7.3525312e+04 </wgt>
<wgt id='1268'> +7.3411096e+04 </wgt>
<wgt id='1269'> +7.3502771e+04 </wgt>
<wgt id='1270'> +7.3583041e+04 </wgt>
<wgt id='1271'> +7.3580194e+04 </wgt>
<wgt id='1272'> +7.3250372e+04 </wgt>
<wgt id='1273'> +7.3498160e+04 </wgt>
<wgt id='1274'> +7.3800216e+04 </wgt>
<wgt id='1275'> +7.3689700e+04 </wgt>
<wgt id='1276'> +7.3292743e+04 </wgt>
<wgt id='1277'> +7.3442338e+04 </wgt>
<wgt id='1278'> +7.3460144e+04 </wgt>
<wgt id='1279'> +7.3149799e+04 </wgt>
<wgt id='1280'> +7.3580702e+04 </wgt>
<wgt id='1281'> +7.3470561e+04 </wgt>
<wgt id='1282'> +7.3642788e+04 </wgt>
<wgt id='1283'> +7.3599028e+04 </wgt>
<wgt id='1284'> +7.3562953e+04 </wgt>
<wgt id='1285'> +7.3422543e+04 </wgt>
<wgt id='1286'> +7.3643807e+04 </wgt>
<wgt id='1287'> +7.3536497e+04 </wgt>
<wgt id='1288'> +7.3488419e+04 </wgt>
<wgt id='1289'> +7.3577887e+04 </wgt>
<wgt id='1290'> +7.3431148e+04 </wgt>
<wgt id='1291'> +7.3433902e+04 </wgt>
<wgt id='1292'> +7.3553589e+04 </wgt>
<wgt id='1293'> +7.3444774e+04 </wgt>
<wgt id='1294'> +7.3456502e+04 </wgt>
<wgt id='1295'> +7.3480946e+04 </wgt>
<wgt id='1296'> +7.3391362e+04 </wgt>
<wgt id='1297'> +7.3528774e+04 </wgt>
<wgt id='1298'> +7.3672360e+04 </wgt>
<wgt id='1299'> +7.3604021e+04 </wgt>
<wgt id='1300'> +7.3523463e+04 </wgt>
<wgt id='1301'> +7.3414139e+04 </wgt>
<wgt id='1302'> +7.3465610e+04 </wgt>
<wgt id='1303'> +7.3598000e+04 </wgt>
<wgt id='1304'> +7.3423997e+04 </wgt>
<wgt id='1305'> +7.3510568e+04 </wgt>
<wgt id='1306'> +7.3477461e+04 </wgt>
<wgt id='1307'> +7.3590631e+04 </wgt>
<wgt id='1308'> +7.3452098e+04 </wgt>
<wgt id='1309'> +7.3536783e+04 </wgt>
<wgt id='1310'> +7.3440995e+04 </wgt>
<wgt id='1311'> +7.3543735e+04 </wgt>
<wgt id='1312'> +7.3515989e+04 </wgt>
<wgt id='1313'> +7.3530053e+04 </wgt>
<wgt id='1314'> +7.3568480e+04 </wgt>
<wgt id='1315'> +7.3440380e+04 </wgt>
<wgt id='1316'> +7.3449603e+04 </wgt>
<wgt id='1317'> +7.3481402e+04 </wgt>
<wgt id='1318'> +7.3571306e+04 </wgt>
<wgt id='1319'> +7.3514890e+04 </wgt>
<wgt id='1320'> +7.3482130e+04 </wgt>
<wgt id='1321'> +7.3490193e+04 </wgt>
<wgt id='1322'> +7.3531075e+04 </wgt>
<wgt id='1323'> +7.3587664e+04 </wgt>
<wgt id='1324'> +7.2954904e+04 </wgt>
<wgt id='1325'> +7.4203630e+04 </wgt>
<wgt id='1326'> +7.3793925e+04 </wgt>
<wgt id='1327'> +7.0530431e+04 </wgt>
<wgt id='1328'> +7.2349449e+04 </wgt>
<wgt id='1329'> +7.2769811e+04 </wgt>
<wgt id='1330'> +7.3475560e+04 </wgt>
<wgt id='1331'> +7.1501509e+04 </wgt>
<wgt id='1332'> +7.4879906e+04 </wgt>
<wgt id='1333'> +7.3625501e+04 </wgt>
<wgt id='1334'> +6.9612864e+04 </wgt>
<wgt id='1335'> +6.9716586e+04 </wgt>
<wgt id='1336'> +7.2750551e+04 </wgt>
<wgt id='1337'> +7.3091060e+04 </wgt>
<wgt id='1338'> +7.2002128e+04 </wgt>
<wgt id='1339'> +7.2511524e+04 </wgt>
<wgt id='1340'> +7.1526568e+04 </wgt>
<wgt id='1341'> +7.0953095e+04 </wgt>
<wgt id='1342'> +7.4484253e+04 </wgt>
<wgt id='1343'> +7.2063751e+04 </wgt>
<wgt id='1344'> +7.0322755e+04 </wgt>
<wgt id='1345'> +7.3969584e+04 </wgt>
<wgt id='1346'> +7.2191585e+04 </wgt>
<wgt id='1347'> +7.3913535e+04 </wgt>
<wgt id='1348'> +7.1157055e+04 </wgt>
<wgt id='1349'> +7.3019866e+04 </wgt>
<wgt id='1350'> +7.2433781e+04 </wgt>
<wgt id='1351'> +7.1661146e+04 </wgt>
<wgt id='1352'> +7.2759952e+04 </wgt>
<wgt id='1353'> +7.3563483e+04 </wgt>
<wgt id='1354'> +7.1901070e+04 </wgt>
<wgt id='1355'> +7.3996096e+04 </wgt>
<wgt id='1356'> +7.3793021e+04 </wgt>
<wgt id='1357'> +7.1491367e+04 </wgt>
<wgt id='1358'> +7.1399480e+04 </wgt>
<wgt id='1359'> +7.2901008e+04 </wgt>
<wgt id='1360'> +7.4060942e+04 </wgt>
<wgt id='1361'> +7.4726288e+04 </wgt>
<wgt id='1362'> +7.2053954e+04 </wgt>
<wgt id='1363'> +6.9979655e+04 </wgt>
<wgt id='1364'> +7.2117568e+04 </wgt>
<wgt id='1365'> +7.1496107e+04 </wgt>
<wgt id='1366'> +7.2599922e+04 </wgt>
<wgt id='1367'> +7.3625461e+04 </wgt>
<wgt id='1368'> +7.2436160e+04 </wgt>
<wgt id='1369'> +7.3077244e+04 </wgt>
<wgt id='1370'> +7.0828908e+04 </wgt>
<wgt id='1371'> +7.1527137e+04 </wgt>
<wgt id='1372'> +7.3580647e+04 </wgt>
<wgt id='1373'> +7.2031393e+04 </wgt>
<wgt id='1374'> +7.3193523e+04 </wgt>
<wgt id='1375'> +7.2784704e+04 </wgt>
<wgt id='1376'> +7.0242288e+04 </wgt>
<wgt id='1377'> +7.2395133e+04 </wgt>
<wgt id='1378'> +7.1659100e+04 </wgt>
<wgt id='1379'> +7.3622181e+04 </wgt>
<wgt id='1380'> +7.0449290e+04 </wgt>
<wgt id='1381'> +7.2812433e+04 </wgt>
<wgt id='1382'> +7.0587474e+04 </wgt>
<wgt id='1383'> +7.1723801e+04 </wgt>
<wgt id='1384'> +7.2348379e+04 </wgt>
<wgt id='1385'> +6.6543639e+04 </wgt>
<wgt id='1386'> +7.3632502e+04 </wgt>
<wgt id='1387'> +7.4147521e+04 </wgt>
<wgt id='1388'> +7.3470390e+04 </wgt>
<wgt id='1389'> +7.1613056e+04 </wgt>
<wgt id='1390'> +6.7599307e+04 </wgt>
<wgt id='1391'> +7.1626859e+04 </wgt>
<wgt id='1392'> +7.1291619e+04 </wgt>
<wgt id='1393'> +7.1865858e+04 </wgt>
<wgt id='1394'> +7.1496107e+04 </wgt>
<wgt id='1395'> +7.2866983e+04 </wgt>
<wgt id='1396'> +7.2985321e+04 </wgt>
<wgt id='1397'> +7.3046102e+04 </wgt>
<wgt id='1398'> +7.4056450e+04 </wgt>
<wgt id='1399'> +7.1988786e+04 </wgt>
<wgt id='1400'> +7.3325669e+04 </wgt>
<wgt id='1401'> +7.1920954e+04 </wgt>
<wgt id='1402'> +7.2773036e+04 </wgt>
<wgt id='1403'> +7.4400647e+04 </wgt>
<wgt id='1404'> +7.3898098e+04 </wgt>
<wgt id='1405'> +6.9047404e+04 </wgt>
<wgt id='1406'> +7.1686024e+04 </wgt>
<wgt id='1407'> +7.3537178e+04 </wgt>
<wgt id='1408'> +7.5484554e+04 </wgt>
<wgt id='1409'> +7.2428205e+04 </wgt>
<wgt id='1410'> +7.3042447e+04 </wgt>
<wgt id='1411'> +7.2500466e+04 </wgt>
<wgt id='1412'> +7.3453632e+04 </wgt>
<wgt id='1413'> +7.2451707e+04 </wgt>
<wgt id='1414'> +7.0171392e+04 </wgt>
<wgt id='1415'> +6.9828494e+04 </wgt>
<wgt id='1416'> +7.2392979e+04 </wgt>
<wgt id='1417'> +7.1762774e+04 </wgt>
<wgt id='1418'> +7.5236550e+04 </wgt>
<wgt id='1419'> +7.2244476e+04 </wgt>
<wgt id='1420'> +7.0446564e+04 </wgt>
<wgt id='1421'> +7.1975942e+04 </wgt>
<wgt id='1422'> +7.2571083e+04 </wgt>
<wgt id='1423'> +7.2594864e+04 </wgt>
<wgt id='1424'> +7.2958215e+04 </wgt>
<wgt id='1425'> +7.2609774e+04 </wgt>
<wgt id='1426'> +7.2651940e+04 </wgt>
<wgt id='1427'> +7.2791264e+04 </wgt>
<wgt id='1428'> +7.5251072e+04 </wgt>
<wgt id='1429'> +7.2491889e+04 </wgt>
<wgt id='1430'> +7.2352593e+04 </wgt>
<wgt id='1431'> +7.2424644e+04 </wgt>
<wgt id='1432'> +7.2945418e+04 </wgt>
<wgt id='1433'> +7.2339750e+04 </wgt>
<wgt id='1434'> +7.2283850e+04 </wgt>
<wgt id='1435'> +7.2149363e+04 </wgt>
<wgt id='1436'> +7.1885473e+04 </wgt>
<wgt id='1437'> +7.2711425e+04 </wgt>
<wgt id='1438'> +7.2549032e+04 </wgt>
<wgt id='1439'> +7.1875720e+04 </wgt>
<wgt id='1440'> +7.2378383e+04 </wgt>
<wgt id='1441'> +7.2307242e+04 </wgt>
<wgt id='1442'> +7.2235866e+04 </wgt>
<wgt id='1443'> +7.2457710e+04 </wgt>
<wgt id='1444'> +7.2099737e+04 </wgt>
<wgt id='1445'> +7.1819306e+04 </wgt>
<wgt id='1446'> +7.2647161e+04 </wgt>
<wgt id='1447'> +7.2321712e+04 </wgt>
<wgt id='1448'> +7.2594027e+04 </wgt>
<wgt id='1449'> +7.2354928e+04 </wgt>
<wgt id='1450'> +7.2180967e+04 </wgt>
<wgt id='1451'> +7.2489469e+04 </wgt>
<wgt id='1452'> +7.2567172e+04 </wgt>
<wgt id='1453'> +7.2393360e+04 </wgt>
<wgt id='1454'> +7.2482881e+04 </wgt>
<wgt id='1455'> +7.2165192e+04 </wgt>
<wgt id='1456'> +7.2442915e+04 </wgt>
<wgt id='1457'> +7.2366490e+04 </wgt>
<wgt id='1458'> +7.2490548e+04 </wgt>
<wgt id='1459'> +7.2527688e+04 </wgt>
<wgt id='1460'> +7.2229516e+04 </wgt>
<wgt id='1461'> +7.2382384e+04 </wgt>
<wgt id='1462'> +7.2252984e+04 </wgt>
<wgt id='1463'> +7.2394560e+04 </wgt>
<wgt id='1464'> +7.2412063e+04 </wgt>
<wgt id='1465'> +7.2527250e+04 </wgt>
<wgt id='1466'> +7.2420439e+04 </wgt>
<wgt id='1467'> +7.2316226e+04 </wgt>
<wgt id='1468'> +7.2400889e+04 </wgt>
<wgt id='1469'> +7.2346943e+04 </wgt>
<wgt id='1470'> +7.2307055e+04 </wgt>
<wgt id='1471'> +7.2392226e+04 </wgt>
<wgt id='1472'> +7.2412223e+04 </wgt>
<wgt id='1473'> +7.2484944e+04 </wgt>
<wgt id='1474'> +7.2396965e+04 </wgt>
<wgt id='1475'> +7.2460710e+04 </wgt>
<wgt id='1476'> +7.2384921e+04 </wgt>
<wgt id='1477'> +7.2458822e+04 </wgt>
<wgt id='1478'> +7.2441902e+04 </wgt>
<wgt id='1479'> +7.2515636e+04 </wgt>
<wgt id='1480'> +7.2414773e+04 </wgt>
<wgt id='1481'> +7.2438308e+04 </wgt>
<wgt id='1482'> +7.2491889e+04 </wgt>
<wgt id='1483'> +7.2352593e+04 </wgt>
<wgt id='1484'> +7.5362933e+04 </wgt>
<wgt id='1485'> +7.4924560e+04 </wgt>
<wgt id='1486'> +7.6037988e+04 </wgt>
<wgt id='1487'> +7.3271526e+04 </wgt>
<wgt id='1488'> +7.5483315e+04 </wgt>
<wgt id='1489'> +7.5498765e+04 </wgt>
<wgt id='1490'> +7.2225604e+04 </wgt>
<wgt id='1491'> +7.4433101e+04 </wgt>
<wgt id='1492'> +7.3280277e+04 </wgt>
<wgt id='1493'> +7.5314802e+04 </wgt>
<wgt id='1494'> +7.6278159e+04 </wgt>
<wgt id='1495'> +7.1613551e+04 </wgt>
<wgt id='1496'> +7.2602828e+04 </wgt>
<wgt id='1497'> +7.3207993e+04 </wgt>
<wgt id='1498'> +7.7615005e+04 </wgt>
<wgt id='1499'> +7.6862733e+04 </wgt>
<wgt id='1500'> +7.3841708e+04 </wgt>
<wgt id='1501'> +7.4657409e+04 </wgt>
<wgt id='1502'> +7.5697486e+04 </wgt>
<wgt id='1503'> +7.4975948e+04 </wgt>
<wgt id='1504'> +7.6502350e+04 </wgt>
<wgt id='1505'> +7.5836022e+04 </wgt>
<wgt id='1506'> +7.5843598e+04 </wgt>
<wgt id='1507'> +7.4505743e+04 </wgt>
<wgt id='1508'> +7.3342797e+04 </wgt>
<wgt id='1509'> +7.6723783e+04 </wgt>
<wgt id='1510'> +7.7611834e+04 </wgt>
<wgt id='1511'> +7.6154997e+04 </wgt>
<wgt id='1512'> +7.5320713e+04 </wgt>
<wgt id='1513'> +7.4758337e+04 </wgt>
<wgt id='1514'> +7.4709700e+04 </wgt>
<wgt id='1515'> +7.5670654e+04 </wgt>
<wgt id='1516'> +7.5140597e+04 </wgt>
<wgt id='1517'> +7.6518449e+04 </wgt>
<wgt id='1518'> +7.5568170e+04 </wgt>
<wgt id='1519'> +7.5034140e+04 </wgt>
<wgt id='1520'> +7.6400467e+04 </wgt>
<wgt id='1521'> +7.4496081e+04 </wgt>
<wgt id='1522'> +7.7646125e+04 </wgt>
<wgt id='1523'> +7.6213105e+04 </wgt>
<wgt id='1524'> +7.6193706e+04 </wgt>
<wgt id='1525'> +7.5084444e+04 </wgt>
<wgt id='1526'> +7.4846739e+04 </wgt>
<wgt id='1527'> +7.5980274e+04 </wgt>
<wgt id='1528'> +7.5464042e+04 </wgt>
<wgt id='1529'> +7.5691552e+04 </wgt>
<wgt id='1530'> +7.6004865e+04 </wgt>
<wgt id='1531'> +7.4617680e+04 </wgt>
<wgt id='1532'> +7.5717756e+04 </wgt>
<wgt id='1533'> +7.7022777e+04 </wgt>
<wgt id='1534'> +7.5831768e+04 </wgt>
<wgt id='1535'> +7.5821866e+04 </wgt>
<wgt id='1536'> +7.4477771e+04 </wgt>
<wgt id='1537'> +7.5849469e+04 </wgt>
<wgt id='1538'> +7.5220399e+04 </wgt>
<wgt id='1539'> +7.5571960e+04 </wgt>
<wgt id='1540'> +7.7199544e+04 </wgt>
<wgt id='1541'> +7.6259976e+04 </wgt>
<wgt id='1542'> +7.5449462e+04 </wgt>
<wgt id='1543'> +7.6425780e+04 </wgt>
<wgt id='1544'> +7.5965655e+04 </wgt>
<wgt id='1545'> +7.6228999e+04 </wgt>
<wgt id='1546'> +7.5193399e+04 </wgt>
<wgt id='1547'> +7.5685402e+04 </wgt>
<wgt id='1548'> +7.6139772e+04 </wgt>
<wgt id='1549'> +7.7241156e+04 </wgt>
<wgt id='1550'> +7.7713240e+04 </wgt>
<wgt id='1551'> +7.6948398e+04 </wgt>
<wgt id='1552'> +7.5591808e+04 </wgt>
<wgt id='1553'> +7.7858526e+04 </wgt>
<wgt id='1554'> +7.5596296e+04 </wgt>
<wgt id='1555'> +7.3679128e+04 </wgt>
<wgt id='1556'> +7.3123536e+04 </wgt>
<wgt id='1557'> +7.5862919e+04 </wgt>
<wgt id='1558'> +7.5333593e+04 </wgt>
<wgt id='1559'> +7.6581039e+04 </wgt>
<wgt id='1560'> +7.6258338e+04 </wgt>
<wgt id='1561'> +7.6257550e+04 </wgt>
<wgt id='1562'> +7.5964506e+04 </wgt>
<wgt id='1563'> +7.4380864e+04 </wgt>
<wgt id='1564'> +7.4099487e+04 </wgt>
<wgt id='1565'> +7.4897510e+04 </wgt>
<wgt id='1566'> +7.4907304e+04 </wgt>
<wgt id='1567'> +7.5058592e+04 </wgt>
<wgt id='1568'> +7.5541492e+04 </wgt>
<wgt id='1569'> +7.5439919e+04 </wgt>
<wgt id='1570'> +7.6453250e+04 </wgt>
<wgt id='1571'> +7.4253652e+04 </wgt>
<wgt id='1572'> +7.4029637e+04 </wgt>
<wgt id='1573'> +7.4922350e+04 </wgt>
<wgt id='1574'> +7.3516546e+04 </wgt>
<wgt id='1575'> +7.3266488e+04 </wgt>
<wgt id='1576'> +7.5217955e+04 </wgt>
<wgt id='1577'> +7.2251827e+04 </wgt>
<wgt id='1578'> +7.7286823e+04 </wgt>
<wgt id='1579'> +7.4248536e+04 </wgt>
<wgt id='1580'> +7.6308062e+04 </wgt>
<wgt id='1581'> +7.6626432e+04 </wgt>
<wgt id='1582'> +7.4720755e+04 </wgt>
<wgt id='1583'> +7.5771192e+04 </wgt>
<wgt id='1584'> +7.3504363e+04 </wgt>
<wgt id='1585'> +7.3291473e+04 </wgt>
<wgt id='1586'> +6.3252615e+04 </wgt>
<wgt id='1587'> +7.2617529e+04 </wgt>
<wgt id='1588'> +7.2491889e+04 </wgt>
<wgt id='1589'> +7.2307353e+04 </wgt>
<wgt id='1590'> +7.2141070e+04 </wgt>
<wgt id='1591'> +7.2352593e+04 </wgt>
<wgt id='1592'> +7.1968559e+04 </wgt>
<wgt id='1593'> +7.7123158e+04 </wgt>
<wgt id='1594'> +7.6761441e+04 </wgt>
<wgt id='1595'> +7.6085202e+04 </wgt>
<wgt id='1596'> +7.6557754e+04 </wgt>
<wgt id='1597'> +7.7711493e+04 </wgt>
<wgt id='1598'> +7.5330287e+04 </wgt>
<wgt id='1599'> +7.8621807e+04 </wgt>
<wgt id='1600'> +7.5707241e+04 </wgt>
<wgt id='1601'> +7.8667329e+04 </wgt>
<wgt id='1602'> +7.6977373e+04 </wgt>
<wgt id='1603'> +7.7513400e+04 </wgt>
<wgt id='1604'> +7.8956022e+04 </wgt>
<wgt id='1605'> +7.5930747e+04 </wgt>
<wgt id='1606'> +7.5895240e+04 </wgt>
<wgt id='1607'> +7.8253616e+04 </wgt>
<wgt id='1608'> +7.6334976e+04 </wgt>
<wgt id='1609'> +7.7323430e+04 </wgt>
<wgt id='1610'> +7.7512635e+04 </wgt>
<wgt id='1611'> +7.6569291e+04 </wgt>
<wgt id='1612'> +7.8387516e+04 </wgt>
<wgt id='1613'> +7.5206887e+04 </wgt>
<wgt id='1614'> +7.7239216e+04 </wgt>
<wgt id='1615'> +7.7032875e+04 </wgt>
<wgt id='1616'> +7.6914131e+04 </wgt>
<wgt id='1617'> +7.6843763e+04 </wgt>
<wgt id='1618'> +7.7106115e+04 </wgt>
<wgt id='1619'> +7.7230123e+04 </wgt>
<wgt id='1620'> +7.6963702e+04 </wgt>
<wgt id='1621'> +7.7217557e+04 </wgt>
<wgt id='1622'> +7.7007443e+04 </wgt>
<wgt id='1623'> +7.6586841e+04 </wgt>
<wgt id='1624'> +7.7656746e+04 </wgt>
<wgt id='1625'> +7.6190924e+04 </wgt>
<wgt id='1626'> +7.6386643e+04 </wgt>
<wgt id='1627'> +7.7732568e+04 </wgt>
<wgt id='1628'> +7.7042213e+04 </wgt>
<wgt id='1629'> +7.7450571e+04 </wgt>
<wgt id='1630'> +7.6891589e+04 </wgt>
<wgt id='1631'> +7.6748331e+04 </wgt>
<wgt id='1632'> +7.7000833e+04 </wgt>
<wgt id='1633'> +7.7107720e+04 </wgt>
<wgt id='1634'> +7.7692748e+04 </wgt>
<wgt id='1635'> +7.6682995e+04 </wgt>
<wgt id='1636'> +7.6745862e+04 </wgt>
<wgt id='1637'> +7.7876903e+04 </wgt>
<wgt id='1638'> +7.7184242e+04 </wgt>
<wgt id='1639'> +7.7102971e+04 </wgt>
<wgt id='1640'> +7.7850797e+04 </wgt>
<wgt id='1641'> +7.6524613e+04 </wgt>
<wgt id='1642'> +7.7153093e+04 </wgt>
<wgt id='1643'> +7.7036797e+04 </wgt>
<wgt id='1644'> +7.8133877e+04 </wgt>
<wgt id='1645'> +7.5945212e+04 </wgt>
<wgt id='1646'> +7.6914506e+04 </wgt>
<wgt id='1647'> +7.8095882e+04 </wgt>
<wgt id='1648'> +7.7183152e+04 </wgt>
<wgt id='1649'> +7.7674533e+04 </wgt>
<wgt id='1650'> +7.8144456e+04 </wgt>
<wgt id='1651'> +7.5817509e+04 </wgt>
<wgt id='1652'> +7.6641406e+04 </wgt>
<wgt id='1653'> +7.6881493e+04 </wgt>
<wgt id='1654'> +7.7373627e+04 </wgt>
<wgt id='1655'> +7.7634804e+04 </wgt>
<wgt id='1656'> +7.8145777e+04 </wgt>
<wgt id='1657'> +7.7378555e+04 </wgt>
<wgt id='1658'> +7.7898159e+04 </wgt>
<wgt id='1659'> +7.9114360e+04 </wgt>
<wgt id='1660'> +7.8694862e+04 </wgt>
<wgt id='1661'> +7.8369724e+04 </wgt>
<wgt id='1662'> +7.7541828e+04 </wgt>
<wgt id='1663'> +7.8052252e+04 </wgt>
<wgt id='1664'> +7.7698562e+04 </wgt>
<wgt id='1665'> +7.7824663e+04 </wgt>
<wgt id='1666'> +7.8920034e+04 </wgt>
<wgt id='1667'> +7.7786962e+04 </wgt>
<wgt id='1668'> +7.8682963e+04 </wgt>
<wgt id='1669'> +7.8718440e+04 </wgt>
<wgt id='1670'> +7.7906648e+04 </wgt>
<wgt id='1671'> +7.9232185e+04 </wgt>
<wgt id='1672'> +7.7097302e+04 </wgt>
<wgt id='1673'> +7.9656922e+04 </wgt>
<wgt id='1674'> +7.7917889e+04 </wgt>
<wgt id='1675'> +7.8864839e+04 </wgt>
<wgt id='1676'> +7.7729202e+04 </wgt>
<wgt id='1677'> +7.8078784e+04 </wgt>
<wgt id='1678'> +7.8848219e+04 </wgt>
<wgt id='1679'> +7.7666413e+04 </wgt>
<wgt id='1680'> +7.9235066e+04 </wgt>
<wgt id='1681'> +7.8178664e+04 </wgt>
<wgt id='1682'> +7.7728667e+04 </wgt>
<wgt id='1683'> +7.8010373e+04 </wgt>
<wgt id='1684'> +7.8218515e+04 </wgt>
<wgt id='1685'> +7.8890721e+04 </wgt>
<wgt id='1686'> +7.7233708e+04 </wgt>
<wgt id='1687'> +7.8578972e+04 </wgt>
<wgt id='1688'> +7.7286234e+04 </wgt>
<wgt id='1689'> +7.7760982e+04 </wgt>
<wgt id='1690'> +7.9773853e+04 </wgt>
<wgt id='1691'> +7.8520457e+04 </wgt>
<wgt id='1692'> +7.8106097e+04 </wgt>
<wgt id='1693'> +7.8644059e+04 </wgt>
<wgt id='1694'> +7.8234242e+04 </wgt>
<wgt id='1695'> +7.7617561e+04 </wgt>
<wgt id='1696'> +7.8559409e+04 </wgt>
<wgt id='1697'> +7.9027706e+04 </wgt>
<wgt id='1698'> +7.7364768e+04 </wgt>
<wgt id='1699'> +7.7027801e+04 </wgt>
<wgt id='1700'> +7.9450957e+04 </wgt>
<wgt id='1701'> +7.6641293e+04 </wgt>
<wgt id='1702'> +7.9894994e+04 </wgt>
<wgt id='1703'> +7.7901911e+04 </wgt>
<wgt id='1704'> +7.9037462e+04 </wgt>
<wgt id='1705'> +7.7764299e+04 </wgt>
<wgt id='1706'> +7.8971594e+04 </wgt>
<wgt id='1707'> +7.7017859e+04 </wgt>
<wgt id='1708'> +7.8990175e+04 </wgt>
<wgt id='1709'> +7.7689331e+04 </wgt>
<wgt id='1710'> +7.8809227e+04 </wgt>
<wgt id='1711'> +7.7931170e+04 </wgt>
<wgt id='1712'> +7.8147116e+04 </wgt>
<wgt id='1713'> +7.8796216e+04 </wgt>
<wgt id='1714'> +7.7167296e+04 </wgt>
<wgt id='1715'> +7.5773383e+04 </wgt>
<wgt id='1716'> +7.8091014e+04 </wgt>
<wgt id='1717'> +7.2731725e+04 </wgt>
<wgt id='1718'> +7.2809968e+04 </wgt>
<wgt id='1719'> +7.2630319e+04 </wgt>
<wgt id='1720'> +7.2751265e+04 </wgt>
<wgt id='1721'> +7.2713878e+04 </wgt>
<wgt id='1722'> +7.2759763e+04 </wgt>
<wgt id='1723'> +7.2685442e+04 </wgt>
<wgt id='1724'> +7.2878135e+04 </wgt>
<wgt id='1725'> +7.2612600e+04 </wgt>
<wgt id='1726'> +7.2599343e+04 </wgt>
<wgt id='1727'> +7.2868005e+04 </wgt>
<wgt id='1728'> +7.1816212e+04 </wgt>
<wgt id='1729'> +7.3624196e+04 </wgt>
<wgt id='1730'> +7.2777268e+04 </wgt>
<wgt id='1731'> +7.2698964e+04 </wgt>
<wgt id='1732'> +7.3129748e+04 </wgt>
<wgt id='1733'> +7.3129748e+04 </wgt>
<wgt id='1734'> +7.2334949e+04 </wgt>
<wgt id='1735'> +7.2997711e+04 </wgt>
<wgt id='1736'> +7.2461879e+04 </wgt>
<wgt id='1737'> +7.3105387e+04 </wgt>
<wgt id='1738'> +7.2909716e+04 </wgt>
<wgt id='1739'> +7.2363603e+04 </wgt>
<wgt id='1740'> +7.2768033e+04 </wgt>
<wgt id='1741'> +7.2636858e+04 </wgt>
<wgt id='1742'> +7.2530481e+04 </wgt>
<wgt id='1743'> +7.2957700e+04 </wgt>
<wgt id='1744'> +7.2795547e+04 </wgt>
<wgt id='1745'> +7.2557034e+04 </wgt>
<wgt id='1746'> +7.2515971e+04 </wgt>
<wgt id='1747'> +7.2826472e+04 </wgt>
<wgt id='1748'> +7.3035044e+04 </wgt>
<wgt id='1749'> +7.1741636e+04 </wgt>
<wgt id='1750'> +7.2976437e+04 </wgt>
<wgt id='1751'> +7.2471181e+04 </wgt>
<wgt id='1752'> +7.2510091e+04 </wgt>
<wgt id='1753'> +7.3037565e+04 </wgt>
<wgt id='1754'> +7.3165717e+04 </wgt>
<wgt id='1755'> +7.2493699e+04 </wgt>
<wgt id='1756'> +7.2305812e+04 </wgt>
<wgt id='1757'> +7.3781706e+04 </wgt>
<wgt id='1758'> +7.2582769e+04 </wgt>
<wgt id='1759'> +7.2660055e+04 </wgt>
<wgt id='1760'> +7.3035720e+04 </wgt>
<wgt id='1761'> +7.2472441e+04 </wgt>
<wgt id='1762'> +7.2569902e+04 </wgt>
<wgt id='1763'> +7.3107991e+04 </wgt>
<wgt id='1764'> +7.2720938e+04 </wgt>
<wgt id='1765'> +7.2746795e+04 </wgt>
<wgt id='1766'> +7.2756729e+04 </wgt>
<wgt id='1767'> +7.2611220e+04 </wgt>
<wgt id='1768'> +7.2770043e+04 </wgt>
<wgt id='1769'> +7.2714604e+04 </wgt>
<wgt id='1770'> +7.2511997e+04 </wgt>
<wgt id='1771'> +7.3046031e+04 </wgt>
<wgt id='1772'> +7.2812489e+04 </wgt>
<wgt id='1773'> +7.2812230e+04 </wgt>
<wgt id='1774'> +7.1777189e+04 </wgt>
<wgt id='1775'> +7.3328560e+04 </wgt>
<wgt id='1776'> +7.2305566e+04 </wgt>
<wgt id='1777'> +7.2927447e+04 </wgt>
<wgt id='1778'> +7.2485293e+04 </wgt>
<wgt id='1779'> +7.2842559e+04 </wgt>
<wgt id='1780'> +7.3304998e+04 </wgt>
<wgt id='1781'> +7.2762821e+04 </wgt>
<wgt id='1782'> +7.2731725e+04 </wgt>
<wgt id='1783'> +7.2856476e+04 </wgt>
<wgt id='1784'> +7.3975387e+04 </wgt>
<wgt id='1785'> +7.3615717e+04 </wgt>
<wgt id='1786'> +7.2214883e+04 </wgt>
<wgt id='1787'> +7.3875211e+04 </wgt>
<wgt id='1788'> +7.4169526e+04 </wgt>
<wgt id='1789'> +7.3944418e+04 </wgt>
<wgt id='1790'> +7.3412796e+04 </wgt>
<wgt id='1791'> +7.3792587e+04 </wgt>
<wgt id='1792'> +7.3564165e+04 </wgt>
<wgt id='1793'> +7.4100873e+04 </wgt>
<wgt id='1794'> +7.4515427e+04 </wgt>
<wgt id='1795'> +7.3508541e+04 </wgt>
<wgt id='1796'> +7.3909748e+04 </wgt>
<wgt id='1797'> +7.3977589e+04 </wgt>
<wgt id='1798'> +7.3853017e+04 </wgt>
<wgt id='1799'> +7.4497550e+04 </wgt>
<wgt id='1800'> +7.4749711e+04 </wgt>
<wgt id='1801'> +7.4639100e+04 </wgt>
<wgt id='1802'> +7.3952736e+04 </wgt>
<wgt id='1803'> +7.4350452e+04 </wgt>
<wgt id='1804'> +7.3144588e+04 </wgt>
<wgt id='1805'> +7.3876801e+04 </wgt>
<wgt id='1806'> +7.3805094e+04 </wgt>
<wgt id='1807'> +7.4032036e+04 </wgt>
<wgt id='1808'> +7.4088233e+04 </wgt>
<wgt id='1809'> +7.3132170e+04 </wgt>
<wgt id='1810'> +7.3707050e+04 </wgt>
<wgt id='1811'> +7.3602398e+04 </wgt>
<wgt id='1812'> +7.3811999e+04 </wgt>
<wgt id='1813'> +7.3291494e+04 </wgt>
<wgt id='1814'> +7.3758217e+04 </wgt>
<wgt id='1815'> +7.3882011e+04 </wgt>
<wgt id='1816'> +7.3794752e+04 </wgt>
<wgt id='1817'> +7.3706321e+04 </wgt>
<wgt id='1818'> +7.3998026e+04 </wgt>
<wgt id='1819'> +7.4206785e+04 </wgt>
<wgt id='1820'> +7.3775040e+04 </wgt>
<wgt id='1821'> +7.3984998e+04 </wgt>
<wgt id='1822'> +7.4016382e+04 </wgt>
<wgt id='1823'> +7.3780238e+04 </wgt>
<wgt id='1824'> +7.4901589e+04 </wgt>
<wgt id='1825'> +7.3918247e+04 </wgt>
<wgt id='1826'> +7.4570274e+04 </wgt>
<wgt id='1827'> +7.9284710e+04 </wgt>
<wgt id='1828'> +7.9407395e+04 </wgt>
<wgt id='1829'> +7.9141263e+04 </wgt>
<wgt id='1830'> +7.9363692e+04 </wgt>
<wgt id='1831'> +7.9183763e+04 </wgt>
<wgt id='1832'> +7.9339182e+04 </wgt>
<wgt id='1833'> +7.9208859e+04 </wgt>
<wgt id='1834'> +7.8951661e+04 </wgt>
<wgt id='1835'> +7.9580498e+04 </wgt>
<wgt id='1836'> +7.9350597e+04 </wgt>
<wgt id='1837'> +7.9182114e+04 </wgt>
<wgt id='1838'> +7.8803061e+04 </wgt>
<wgt id='1839'> +7.9707389e+04 </wgt>
<wgt id='1840'> +7.9304562e+04 </wgt>
<wgt id='1841'> +7.9251591e+04 </wgt>
<wgt id='1842'> +7.9386188e+04 </wgt>
<wgt id='1843'> +7.9477173e+04 </wgt>
<wgt id='1844'> +7.8744138e+04 </wgt>
<wgt id='1845'> +7.9783728e+04 </wgt>
<wgt id='1846'> +7.7842919e+04 </wgt>
<wgt id='1847'> +8.0640548e+04 </wgt>
<wgt id='1848'> +7.9339145e+04 </wgt>
<wgt id='1849'> +7.9102504e+04 </wgt>
<wgt id='1850'> +7.9988769e+04 </wgt>
<wgt id='1851'> +7.8594320e+04 </wgt>
<wgt id='1852'> +7.9677286e+04 </wgt>
<wgt id='1853'> +7.8931415e+04 </wgt>
<wgt id='1854'> +7.9362825e+04 </wgt>
<wgt id='1855'> +7.9318905e+04 </wgt>
<wgt id='1856'> +7.4033808e+04 </wgt>
<wgt id='1857'> +7.4023238e+04 </wgt>
<wgt id='1858'> +7.3932559e+04 </wgt>
<wgt id='1859'> +7.4017181e+04 </wgt>
<wgt id='1860'> +7.4034413e+04 </wgt>
<wgt id='1861'> +7.4026971e+04 </wgt>
<wgt id='1862'> +7.3708607e+04 </wgt>
<wgt id='1863'> +7.4076506e+04 </wgt>
<wgt id='1864'> +7.3945146e+04 </wgt>
<wgt id='1865'> +7.3717693e+04 </wgt>
<wgt id='1866'> +7.4044285e+04 </wgt>
<wgt id='1867'> +7.4014235e+04 </wgt>
<wgt id='1868'> +7.4098919e+04 </wgt>
<wgt id='1869'> +7.4146101e+04 </wgt>
<wgt id='1870'> +7.3790012e+04 </wgt>
<wgt id='1871'> +7.3843583e+04 </wgt>
<wgt id='1872'> +7.3781526e+04 </wgt>
<wgt id='1873'> +7.3961882e+04 </wgt>
<wgt id='1874'> +7.3820453e+04 </wgt>
<wgt id='1875'> +7.4136937e+04 </wgt>
<wgt id='1876'> +7.3859029e+04 </wgt>
<wgt id='1877'> +7.3574465e+04 </wgt>
<wgt id='1878'> +7.3978312e+04 </wgt>
<wgt id='1879'> +7.4547582e+04 </wgt>
<wgt id='1880'> +7.4401455e+04 </wgt>
<wgt id='1881'> +7.3917896e+04 </wgt>
<wgt id='1882'> +7.3984545e+04 </wgt>
<wgt id='1883'> +7.4480599e+04 </wgt>
<wgt id='1884'> +7.3491308e+04 </wgt>
<wgt id='1885'> +7.3359323e+04 </wgt>
<wgt id='1886'> +7.4635610e+04 </wgt>
<wgt id='1887'> +7.5399201e+04 </wgt>
<wgt id='1888'> +6.5750921e+04 </wgt>
<wgt id='1889'> +7.5008983e+04 </wgt>
</rwgt>
</event>
<event npLO=" -1 " npNLO=" 0 ">
 5      0 +7.4519530e+04 2.53924680e+01 7.55820760e-03 1.19835100e-01
        4 -1    0    0  501    0 +0.0000000000e+00 +0.0000000000e+00 +1.5611594397e+01 1.5611594397e+01 0.0000000000e+00 0.0000e+00 -1.0000e+00
       -3 -1    0    0    0  501 +0.0000000000e+00 +0.0000000000e+00 -1.0862887204e+02 1.0862887204e+02 0.0000000000e+00 0.0000e+00 1.0000e+00
       24  2    1    2    0    0 +0.0000000000e+00 +0.0000000000e+00 -9.3017277644e+01 1.2424046644e+02 8.2361881721e+01 0.0000e+00 0.0000e+00
      -13  1    3    3    0    0 +2.7256362267e+01 -2.1521627030e+01 -1.3124712414e+01 3.7126106583e+01 0.0000000000e+00 0.0000e+00 1.0000e+00
       14  1    3    3    0    0 -2.7256362267e+01 +2.1521627030e+01 -7.9892565230e+01 8.7114359856e+01 0.0000000000e+00 0.0000e+00 -1.0000e+00
#aMCatNLO 1  0  0  2  1 0.10402495E+02 0.00000000E+00 -9  5  0 0.00000000E+00 0.00000000E+00 0.00000000E+00 0.00000000E+00 0.00000000E+00
<rwgt>
<wgt id='1001'> +7.4519530e+04 </wgt>
<wgt id='1002'> +7.1680234e+04 </wgt>
<wgt id='1003'> +7.8054127e+04 </wgt>
<wgt id='1004'> +8.5768673e+04 </wgt>
<wgt id='1005'> +8.2557492e+04 </wgt>
<wgt id='1006'> +8.9766229e+04 </wgt>
<wgt id='1007'> +6.2193649e+04 </wgt>
<wgt id='1008'> +5.9780931e+04 </wgt>
<wgt id='1009'> +6.5197214e+04 </wgt>
<wgt id='1010'> +7.4519530e+04 </wgt>
<wgt id='1011'> +7.4872568e+04 </wgt>
<wgt id='1012'> +7.4408507e+04 </wgt>
<wgt id='1013'> +7.5336464e+04 </wgt>
<wgt id='1014'> +7.4361184e+04 </wgt>
<wgt id='1015'> +7.4807886e+04 </wgt>
<wgt id='1016'> +7.4471317e+04 </wgt>
<wgt id='1017'> +7.4636455e+04 </wgt>
<wgt id='1018'> +7.4569133e+04 </wgt>
<wgt id='1019'> +7.3762392e+04 </wgt>
<wgt id='1020'> +7.4940479e+04 </wgt>
<wgt id='1021'> +7.4842606e+04 </wgt>
<wgt id='1022'> +7.4407726e+04 </wgt>
<wgt id='1023'> +7.4052437e+04 </wgt>
<wgt id='1024'> +7.3802626e+04 </wgt>
<wgt id='1025'> +7.3261130e+04 </wgt>
<wgt id='1026'> +7.5306013e+04 </wgt>
<wgt id='1027'> +7.4746041e+04 </wgt>
<wgt id='1028'> +7.5707345e+04 </wgt>
<wgt id='1029'> +7.4429449e+04 </wgt>
<wgt id='1030'> +7.4265761e+04 </wgt>
<wgt id='1031'> +7.4950150e+04 </wgt>
<wgt id='1032'> +7.3925861e+04 </wgt>
<wgt id='1033'> +7.5313334e+04 </wgt>
<wgt id='1034'> +7.5860974e+04 </wgt>
<wgt id='1035'> +7.5609238e+04 </wgt>
<wgt id='1036'> +7.5243269e+04 </wgt>
<wgt id='1037'> +7.3315178e+04 </wgt>
<wgt id='1038'> +7.3830828e+04 </wgt>
<wgt id='1039'> +7.4801359e+04 </wgt>
<wgt id='1040'> +7.4248784e+04 </wgt>
<wgt id='1041'> +7.3967077e+04 </wgt>
<wgt id='1042'> +7.4419440e+04 </wgt>
<wgt id='1043'> +7.4248775e+04 </wgt>
<wgt id='1044'> +7.4456937e+04 </wgt>
<wgt id='1045'> +7.4316984e+04 </wgt>
<wgt id='1046'> +7.4459001e+04 </wgt>
<wgt id='1047'> +7.4473802e+04 </wgt>
<wgt id='1048'> +7.4611113e+04 </wgt>
<wgt id='1049'> +7.4354817e+04 </wgt>
<wgt id='1050'> +7.4026932e+04 </wgt>
<wgt id='1051'> +7.4112739e+04 </wgt>
<wgt id='1052'> +7.4965547e+04 </wgt>
<wgt id='1053'> +7.5018319e+04 </wgt>
<wgt id='1054'> +7.3761488e+04 </wgt>
<wgt id='1055'> +7.4377075e+04 </wgt>
<wgt id='1056'> +7.4344816e+04 </wgt>
<wgt id='1057'> +7.4435098e+04 </wgt>
<wgt id='1058'> +7.4934893e+04 </wgt>
<wgt id='1059'> +7.4664367e+04 </wgt>
<wgt id='1060'> +7.4808160e+04 </wgt>
<wgt id='1061'> +7.3995975e+04 </wgt>
<wgt id='1062'> +7.4326231e+04 </wgt>
<wgt id='1063'> +7.4599261e+04 </wgt>
<wgt id='1064'> +7.4694853e+04 </wgt>
<wgt id='1065'> +7.4620467e+04 </wgt>
<wgt id='1066'> +7.4641128e+04 </wgt>
<wgt id='1067'> +7.4409787e+04 </wgt>
<wgt id='1068'> +7.4576346e+04 </wgt>
<wgt id='1069'> +7.4406468e+04 </wgt>
<wgt id='1070'> +7.4417960e+04 </wgt>
<wgt id='1071'> +7.4671831e+04 </wgt>
<wgt id='1072'> +7.4450324e+04 </wgt>
<wgt id='1073'> +7.4480422e+04 </wgt>
<wgt id='1074'> +7.4678285e+04 </wgt>
<wgt id='1075'> +7.4459061e+04 </wgt>
<wgt id='1076'> +7.4679089e+04 </wgt>
<wgt id='1077'> +7.4543707e+04 </wgt>
<wgt id='1078'> +7.4451779e+04 </wgt>
<wgt id='1079'> +7.4582885e+04 </wgt>
<wgt id='1080'> +7.4481455e+04 </wgt>
<wgt id='1081'> +7.4483215e+04 </wgt>
<wgt id='1082'> +7.4541258e+04 </wgt>
<wgt id='1083'> +7.4515895e+04 </wgt>
<wgt id='1084'> +7.4611825e+04 </wgt>
<wgt id='1085'> +7.4522125e+04 </wgt>
<wgt id='1086'> +7.4636931e+04 </wgt>
<wgt id='1087'> +7.4538725e+04 </wgt>
<wgt id='1088'> +7.4493213e+04 </wgt>
<wgt id='1089'> +7.4379206e+04 </wgt>
<wgt id='1090'> +7.4632329e+04 </wgt>
<wgt id='1091'> +7.4360463e+04 </wgt>
<wgt id='1092'> +7.4356909e+04 </wgt>
<wgt id='1093'> +7.4551944e+04 </wgt>
<wgt id='1094'> +7.4528761e+04 </wgt>
<wgt id='1095'> +7.4590728e+04 </wgt>
<wgt id='1096'> +7.4576561e+04 </wgt>
<wgt id='1097'> +7.4539972e+04 </wgt>
<wgt id='1098'> +7.4642561e+04 </wgt>
<wgt id='1099'> +7.4592424e+04 </wgt>
<wgt id='1100'> +7.4500694e+04 </wgt>
<wgt id='1101'> +7.4555837e+04 </wgt>
<wgt id='1102'> +7.4603607e+04 </wgt>
<wgt id='1103'> +7.4558191e+04 </wgt>
<wgt id='1104'> +7.4372543e+04 </wgt>
<wgt id='1105'> +7.4465764e+04 </wgt>
<wgt id='1106'> +7.4492372e+04 </wgt>
<wgt id='1107'> +7.4574553e+04 </wgt>
<wgt id='1108'> +7.4517912e+04 </wgt>
<wgt id='1109'> +7.4474063e+04 </wgt>
<wgt id='1110'> +7.4519527e+04 </wgt>
<wgt id='1111'> +7.2095245e+04 </wgt>
<wgt id='1112'> +7.6198958e+04 </wgt>
<wgt id='1113'> +7.4519527e+04 </wgt>
<wgt id='1114'> +6.3405331e+04 </wgt>
<wgt id='1115'> +7.7123278e+04 </wgt>
<wgt id='1116'> +8.0776151e+04 </wgt>
<wgt id='1117'> +7.4643833e+04 </wgt>
<wgt id='1118'> +7.5855648e+04 </wgt>
<wgt id='1119'> +6.4682353e+04 </wgt>
<wgt id='1120'> +6.9645837e+04 </wgt>
<wgt id='1121'> +8.3283576e+04 </wgt>
<wgt id='1122'> +7.8906838e+04 </wgt>
<wgt id='1123'> +7.3254454e+04 </wgt>
<wgt id='1124'> +7.5283679e+04 </wgt>
<wgt id='1125'> +7.8360910e+04 </wgt>
<wgt id='1126'> +7.5630205e+04 </wgt>
<wgt id='1127'> +7.5972782e+04 </wgt>
<wgt id='1128'> +7.4880755e+04 </wgt>
<wgt id='1129'> +6.9889007e+04 </wgt>
<wgt id='1130'> +7.2396477e+04 </wgt>
<wgt id='1131'> +7.3810126e+04 </wgt>
<wgt id='1132'> +7.6082396e+04 </wgt>
<wgt id='1133'> +8.2520686e+04 </wgt>
<wgt id='1134'> +7.7207918e+04 </wgt>
<wgt id='1135'> +7.7481435e+04 </wgt>
<wgt id='1136'> +7.1408125e+04 </wgt>
<wgt id='1137'> +7.9537788e+04 </wgt>
<wgt id='1138'> +7.8589172e+04 </wgt>
<wgt id='1139'> +7.4167469e+04 </wgt>
<wgt id='1140'> +7.3162923e+04 </wgt>
<wgt id='1141'> +7.7161239e+04 </wgt>
<wgt id='1142'> +6.9539681e+04 </wgt>
<wgt id='1143'> +7.2305098e+04 </wgt>
<wgt id='1144'> +7.2016020e+04 </wgt>
<wgt id='1145'> +7.6792916e+04 </wgt>
<wgt id='1146'> +7.0705148e+04 </wgt>
<wgt id='1147'> +8.2326035e+04 </wgt>
<wgt id='1148'> +7.2524741e+04 </wgt>
<wgt id='1149'> +7.8428419e+04 </wgt>
<wgt id='1150'> +7.3749314e+04 </wgt>
<wgt id='1151'> +7.4375207e+04 </wgt>
<wgt id='1152'> +7.6536363e+04 </wgt>
<wgt id='1153'> +7.0726160e+04 </wgt>
<wgt id='1154'> +7.2866881e+04 </wgt>
<wgt id='1155'> +7.0261071e+04 </wgt>
<wgt id='1156'> +7.2713345e+04 </wgt>
<wgt id='1157'> +6.8355501e+04 </wgt>
<wgt id='1158'> +7.4878452e+04 </wgt>
<wgt id='1159'> +7.0911767e+04 </wgt>
<wgt id='1160'> +7.4356723e+04 </wgt>
<wgt id='1161'> +8.0395075e+04 </wgt>
<wgt id='1162'> +7.1767813e+04 </wgt>
<wgt id='1163'> +7.1636454e+04 </wgt>
<wgt id='1164'> +7.6424979e+04 </wgt>
<wgt id='1165'> +7.4779729e+04 </wgt>
<wgt id='1166'> +7.8119224e+04 </wgt>
<wgt id='1167'> +7.0740429e+04 </wgt>
<wgt id='1168'> +7.3337395e+04 </wgt>
<wgt id='1169'> +7.6340055e+04 </wgt>
<wgt id='1170'> +7.4785521e+04 </wgt>
<wgt id='1171'> +7.8663863e+04 </wgt>
<wgt id='1172'> +7.4715535e+04 </wgt>
<wgt id='1173'> +7.2372488e+04 </wgt>
<wgt id='1174'> +6.9537367e+04 </wgt>
<wgt id='1175'> +7.5387159e+04 </wgt>
<wgt id='1176'> +7.4003930e+04 </wgt>
<wgt id='1177'> +7.9803204e+04 </wgt>
<wgt id='1178'> +6.9225250e+04 </wgt>
<wgt id='1179'> +7.0101729e+04 </wgt>
<wgt id='1180'> +6.6463741e+04 </wgt>
<wgt id='1181'> +7.3141996e+04 </wgt>
<wgt id='1182'> +7.3761054e+04 </wgt>
<wgt id='1183'> +7.7973782e+04 </wgt>
<wgt id='1184'> +7.4634502e+04 </wgt>
<wgt id='1185'> +7.0373884e+04 </wgt>
<wgt id='1186'> +8.0733718e+04 </wgt>
<wgt id='1187'> +7.9343402e+04 </wgt>
<wgt id='1188'> +7.6220732e+04 </wgt>
<wgt id='1189'> +6.6620955e+04 </wgt>
<wgt id='1190'> +7.4127174e+04 </wgt>
<wgt id='1191'> +7.3237912e+04 </wgt>
<wgt id='1192'> +7.8373455e+04 </wgt>
<wgt id='1193'> +7.1442851e+04 </wgt>
<wgt id='1194'> +7.6089370e+04 </wgt>
<wgt id='1195'> +6.9889007e+04 </wgt>
<wgt id='1196'> +7.4451764e+04 </wgt>
<wgt id='1197'> +8.1172829e+04 </wgt>
<wgt id='1198'> +7.5678340e+04 </wgt>
<wgt id='1199'> +7.3363540e+04 </wgt>
<wgt id='1200'> +7.7353051e+04 </wgt>
<wgt id='1201'> +7.0183646e+04 </wgt>
<wgt id='1202'> +8.5554604e+04 </wgt>
<wgt id='1203'> +7.5179135e+04 </wgt>
<wgt id='1204'> +7.2351870e+04 </wgt>
<wgt id='1205'> +7.6578080e+04 </wgt>
<wgt id='1206'> +7.8024988e+04 </wgt>
<wgt id='1207'> +6.9580766e+04 </wgt>
<wgt id='1208'> +7.4081745e+04 </wgt>
<wgt id='1209'> +7.6117195e+04 </wgt>
<wgt id='1210'> +6.9800171e+04 </wgt>
<wgt id='1211'> +7.5558892e+04 </wgt>
<wgt id='1212'> +7.8136572e+04 </wgt>
<wgt id='1213'> +7.5707903e+04 </wgt>
<wgt id='1214'> +7.4513152e+04 </wgt>
<wgt id='1215'> +6.2424273e+04 </wgt>
<wgt id='1216'> +6.5237092e+04 </wgt>
<wgt id='1217'> +6.6654699e+04 </wgt>
<wgt id='1218'> +6.8968409e+04 </wgt>
<wgt id='1219'> +7.2654372e+04 </wgt>
<wgt id='1220'> +7.5706744e+04 </wgt>
<wgt id='1221'> +7.8693703e+04 </wgt>
<wgt id='1222'> +8.1471520e+04 </wgt>
<wgt id='1223'> +7.0506974e+04 </wgt>
<wgt id='1224'> +7.0679921e+04 </wgt>
<wgt id='1225'> +7.0205039e+04 </wgt>
<wgt id='1226'> +7.0516649e+04 </wgt>
<wgt id='1227'> +7.0283897e+04 </wgt>
<wgt id='1228'> +7.0300214e+04 </wgt>
<wgt id='1229'> +7.0829114e+04 </wgt>
<wgt id='1230'> +6.9971475e+04 </wgt>
<wgt id='1231'> +7.0570289e+04 </wgt>
<wgt id='1232'> +6.9790262e+04 </wgt>
<wgt id='1233'> +7.1383939e+04 </wgt>
<wgt id='1234'> +7.1024487e+04 </wgt>
<wgt id='1235'> +7.0347417e+04 </wgt>
<wgt id='1236'> +7.0052990e+04 </wgt>
<wgt id='1237'> +6.9842587e+04 </wgt>
<wgt id='1238'> +7.1699516e+04 </wgt>
<wgt id='1239'> +6.9584235e+04 </wgt>
<wgt id='1240'> +7.0886627e+04 </wgt>
<wgt id='1241'> +6.9947478e+04 </wgt>
<wgt id='1242'> +7.0953879e+04 </wgt>
<wgt id='1243'> +7.1648182e+04 </wgt>
<wgt id='1244'> +6.9141984e+04 </wgt>
<wgt id='1245'> +7.0297132e+04 </wgt>
<wgt id='1246'> +7.0719601e+04 </wgt>
<wgt id='1247'> +7.0015131e+04 </wgt>
<wgt id='1248'> +7.1390024e+04 </wgt>
<wgt id='1249'> +7.0541127e+04 </wgt>
<wgt id='1250'> +7.0679506e+04 </wgt>
<wgt id='1251'> +7.0968458e+04 </wgt>
<wgt id='1252'> +7.0053774e+04 </wgt>
<wgt id='1253'> +7.0077740e+04 </wgt>
<wgt id='1254'> +7.0521760e+04 </wgt>
<wgt id='1255'> +7.0592291e+04 </wgt>
<wgt id='1256'> +6.9721873e+04 </wgt>
<wgt id='1257'> +7.0668007e+04 </wgt>
<wgt id='1258'> +7.0030847e+04 </wgt>
<wgt id='1259'> +7.0446239e+04 </wgt>
<wgt id='1260'> +7.0392027e+04 </wgt>
<wgt id='1261'> +7.0865739e+04 </wgt>
<wgt id='1262'> +7.0414373e+04 </wgt>
<wgt id='1263'> +7.0140566e+04 </wgt>
<wgt id='1264'> +7.0942591e+04 </wgt>
<wgt id='1265'> +7.0717924e+04 </wgt>
<wgt id='1266'> +7.0168247e+04 </wgt>
<wgt id='1267'> +7.0498443e+04 </wgt>
<wgt id='1268'> +7.0333652e+04 </wgt>
<wgt id='1269'> +7.0421605e+04 </wgt>
<wgt id='1270'> +7.0520118e+04 </wgt>
<wgt id='1271'> +6.9991408e+04 </wgt>
<wgt id='1272'> +7.0489344e+04 </wgt>
<wgt id='1273'> +7.0897595e+04 </wgt>
<wgt id='1274'> +7.0710141e+04 </wgt>
<wgt id='1275'> +7.0709947e+04 </wgt>
<wgt id='1276'> +7.0416081e+04 </wgt>
<wgt id='1277'> +7.0464665e+04 </wgt>
<wgt id='1278'> +7.0586619e+04 </wgt>
<wgt id='1279'> +7.0565134e+04 </wgt>
<wgt id='1280'> +7.0355961e+04 </wgt>
<wgt id='1281'> +7.0227642e+04 </wgt>
<wgt id='1282'> +7.0424581e+04 </wgt>
<wgt id='1283'> +7.0569749e+04 </wgt>
<wgt id='1284'> +7.0641095e+04 </wgt>
<wgt id='1285'> +7.0617261e+04 </wgt>
<wgt id='1286'> +7.0704776e+04 </wgt>
<wgt id='1287'> +7.0419016e+04 </wgt>
<wgt id='1288'> +7.0498136e+04 </wgt>
<wgt id='1289'> +7.0495681e+04 </wgt>
<wgt id='1290'> +7.0626698e+04 </wgt>
<wgt id='1291'> +7.0658550e+04 </wgt>
<wgt id='1292'> +7.0387864e+04 </wgt>
<wgt id='1293'> +7.0469654e+04 </wgt>
<wgt id='1294'> +7.0415699e+04 </wgt>
<wgt id='1295'> +7.0491143e+04 </wgt>
<wgt id='1296'> +7.0482347e+04 </wgt>
<wgt id='1297'> +7.0539096e+04 </wgt>
<wgt id='1298'> +7.0583770e+04 </wgt>
<wgt id='1299'> +7.0384824e+04 </wgt>
<wgt id='1300'> +7.0532246e+04 </wgt>
<wgt id='1301'> +7.0523669e+04 </wgt>
<wgt id='1302'> +7.0672652e+04 </wgt>
<wgt id='1303'> +7.0599293e+04 </wgt>
<wgt id='1304'> +7.0625008e+04 </wgt>
<wgt id='1305'> +7.0424271e+04 </wgt>
<wgt id='1306'> +7.0534935e+04 </wgt>
<wgt id='1307'> +7.0546936e+04 </wgt>
<wgt id='1308'> +7.0477858e+04 </wgt>
<wgt id='1309'> +7.0538522e+04 </wgt>
<wgt id='1310'> +7.0484469e+04 </wgt>
<wgt id='1311'> +7.0532621e+04 </wgt>
<wgt id='1312'> +7.0451042e+04 </wgt>
<wgt id='1313'> +7.0527317e+04 </wgt>
<wgt id='1314'> +7.0497436e+04 </wgt>
<wgt id='1315'> +7.0563223e+04 </wgt>
<wgt id='1316'> +7.0534909e+04 </wgt>
<wgt id='1317'> +7.0544469e+04 </wgt>
<wgt id='1318'> +7.0518253e+04 </wgt>
<wgt id='1319'> +7.0587226e+04 </wgt>
<wgt id='1320'> +7.0557260e+04 </wgt>
<wgt id='1321'> +7.0471623e+04 </wgt>
<wgt id='1322'> +7.0470877e+04 </wgt>
<wgt id='1323'> +7.0450346e+04 </wgt>
<wgt id='1324'> +6.8714141e+04 </wgt>
<wgt id='1325'> +7.2732767e+04 </wgt>
<wgt id='1326'> +6.8961791e+04 </wgt>
<wgt id='1327'> +6.8035794e+04 </wgt>
<wgt id='1328'> +7.6629922e+04 </wgt>
<wgt id='1329'> +7.7940282e+04 </wgt>
<wgt id='1330'> +7.5715307e+04 </wgt>
<wgt id='1331'> +7.7295104e+04 </wgt>
<wgt id='1332'> +7.5264930e+04 </wgt>
<wgt id='1333'> +7.2765036e+04 </wgt>
<wgt id='1334'> +7.9511452e+04 </wgt>
<wgt id='1335'> +7.7932646e+04 </wgt>
<wgt id='1336'> +7.4730518e+04 </wgt>
<wgt id='1337'> +7.5017372e+04 </wgt>
<wgt id='1338'> +7.9099087e+04 </wgt>
<wgt id='1339'> +8.0591093e+04 </wgt>
<wgt id='1340'> +7.8858139e+04 </wgt>
<wgt id='1341'> +7.8307944e+04 </wgt>
<wgt id='1342'> +7.3013116e+04 </wgt>
<wgt id='1343'> +7.7483085e+04 </wgt>
<wgt id='1344'> +7.3877579e+04 </wgt>
<wgt id='1345'> +7.8671672e+04 </wgt>
<wgt id='1346'> +7.7248996e+04 </wgt>
<wgt id='1347'> +7.5918925e+04 </wgt>
<wgt id='1348'> +7.7932061e+04 </wgt>
<wgt id='1349'> +7.7549115e+04 </wgt>
<wgt id='1350'> +7.6667572e+04 </wgt>
<wgt id='1351'> +7.7716723e+04 </wgt>
<wgt id='1352'> +7.4310951e+04 </wgt>
<wgt id='1353'> +7.2700841e+04 </wgt>
<wgt id='1354'> +7.8262223e+04 </wgt>
<wgt id='1355'> +7.6938010e+04 </wgt>
<wgt id='1356'> +7.6468191e+04 </wgt>
<wgt id='1357'> +7.5370251e+04 </wgt>
<wgt id='1358'> +7.5436026e+04 </wgt>
<wgt id='1359'> +7.8643005e+04 </wgt>
<wgt id='1360'> +7.5494886e+04 </wgt>
<wgt id='1361'> +7.2235693e+04 </wgt>
<wgt id='1362'> +7.6936180e+04 </wgt>
<wgt id='1363'> +7.8245843e+04 </wgt>
<wgt id='1364'> +7.7265034e+04 </wgt>
<wgt id='1365'> +7.5937466e+04 </wgt>
<wgt id='1366'> +7.6151360e+04 </wgt>
<wgt id='1367'> +7.4126133e+04 </wgt>
<wgt id='1368'> +7.7956771e+04 </wgt>
<wgt id='1369'> +7.3946780e+04 </wgt>
<wgt id='1370'> +7.8391008e+04 </wgt>
<wgt id='1371'> +7.4451531e+04 </wgt>
<wgt id='1372'> +7.4364139e+04 </wgt>
<wgt id='1373'> +7.6428220e+04 </wgt>
<wgt id='1374'> +7.7647048e+04 </wgt>
<wgt id='1375'> +7.6203394e+04 </wgt>
<wgt id='1376'> +7.8979693e+04 </wgt>
<wgt id='1377'> +7.7124263e+04 </wgt>
<wgt id='1378'> +7.9567212e+04 </wgt>
<wgt id='1379'> +7.7507505e+04 </wgt>
<wgt id='1380'> +7.3054484e+04 </wgt>
<wgt id='1381'> +7.5279973e+04 </wgt>
<wgt id='1382'> +7.9806198e+04 </wgt>
<wgt id='1383'> +7.9666787e+04 </wgt>
<wgt id='1384'> +7.6792072e+04 </wgt>
<wgt id='1385'> +8.0455801e+04 </wgt>
<wgt id='1386'> +7.2830307e+04 </wgt>
<wgt id='1387'> +7.7283104e+04 </wgt>
<wgt id='1388'> +7.6333980e+04 </wgt>
<wgt id='1389'> +7.5546534e+04 </wgt>
<wgt id='1390'> +7.8801974e+04 </wgt>
<wgt id='1391'> +7.5197051e+04 </wgt>
<wgt id='1392'> +7.9912090e+04 </wgt>
<wgt id='1393'> +8.1681880e+04 </wgt>
<wgt id='1394'> +7.5937466e+04 </wgt>
<wgt id='1395'> +7.7356650e+04 </wgt>
<wgt id='1396'> +7.5985282e+04 </wgt>
<wgt id='1397'> +7.6431511e+04 </wgt>
<wgt id='1398'> +7.5583050e+04 </wgt>
<wgt id='1399'> +7.7559901e+04 </wgt>
<wgt id='1400'> +7.5652896e+04 </wgt>
<wgt id='1401'> +7.7798230e+04 </wgt>
<wgt id='1402'> +7.3913431e+04 </wgt>
<wgt id='1403'> +7.5038999e+04 </wgt>
<wgt id='1404'> +7.7969341e+04 </wgt>
<wgt id='1405'> +7.4170733e+04 </wgt>
<wgt id='1406'> +7.5042510e+04 </wgt>
<wgt id='1407'> +7.5685310e+04 </wgt>
<wgt id='1408'> +7.5470713e+04 </wgt>
<wgt id='1409'> +7.7019997e+04 </wgt>
<wgt id='1410'> +7.3743184e+04 </wgt>
<wgt id='1411'> +7.6725855e+04 </wgt>
<wgt id='1412'> +7.5468225e+04 </wgt>
<wgt id='1413'> +7.6798880e+04 </wgt>
<wgt id='1414'> +7.9796538e+04 </wgt>
<wgt id='1415'> +7.9786487e+04 </wgt>
<wgt id='1416'> +7.7695931e+04 </wgt>
<wgt id='1417'> +7.5895438e+04 </wgt>
<wgt id='1418'> +7.4462982e+04 </wgt>
<wgt id='1419'> +7.9967141e+04 </wgt>
<wgt id='1420'> +7.9966857e+04 </wgt>
<wgt id='1421'> +7.5682040e+04 </wgt>
<wgt id='1422'> +7.7662589e+04 </wgt>
<wgt id='1423'> +7.6344140e+04 </wgt>
<wgt id='1424'> +7.7725503e+04 </wgt>
<wgt id='1425'> +7.5583903e+04 </wgt>
<wgt id='1426'> +7.7457011e+04 </wgt>
<wgt id='1427'> +7.5339523e+04 </wgt>
<wgt id='1428'> +7.1097680e+04 </wgt>
<wgt id='1429'> +7.5279014e+04 </wgt>
<wgt id='1430'> +7.8315509e+04 </wgt>
<wgt id='1431'> +7.6731021e+04 </wgt>
<wgt id='1432'> +7.6840001e+04 </wgt>
<wgt id='1433'> +7.7389066e+04 </wgt>
<wgt id='1434'> +7.6636099e+04 </wgt>
<wgt id='1435'> +7.6901810e+04 </wgt>
<wgt id='1436'> +7.8016736e+04 </wgt>
<wgt id='1437'> +7.6103949e+04 </wgt>
<wgt id='1438'> +7.6403215e+04 </wgt>
<wgt id='1439'> +7.7028120e+04 </wgt>
<wgt id='1440'> +7.6980604e+04 </wgt>
<wgt id='1441'> +7.6940017e+04 </wgt>
<wgt id='1442'> +7.7529247e+04 </wgt>
<wgt id='1443'> +7.6827277e+04 </wgt>
<wgt id='1444'> +7.7188099e+04 </wgt>
<wgt id='1445'> +7.6522449e+04 </wgt>
<wgt id='1446'> +7.7200988e+04 </wgt>
<wgt id='1447'> +7.6357691e+04 </wgt>
<wgt id='1448'> +7.6445017e+04 </wgt>
<wgt id='1449'> +7.6977862e+04 </wgt>
<wgt id='1450'> +7.6831439e+04 </wgt>
<wgt id='1451'> +7.7000391e+04 </wgt>
<wgt id='1452'> +7.6661407e+04 </wgt>
<wgt id='1453'> +7.6657575e+04 </wgt>
<wgt id='1454'> +7.6692342e+04 </wgt>
<wgt id='1455'> +7.6796237e+04 </wgt>
<wgt id='1456'> +7.6639158e+04 </wgt>
<wgt id='1457'> +7.6693830e+04 </wgt>
<wgt id='1458'> +7.6493371e+04 </wgt>
<wgt id='1459'> +7.6675829e+04 </wgt>
<wgt id='1460'> +7.6631983e+04 </wgt>
<wgt id='1461'> +7.6839965e+04 </wgt>
<wgt id='1462'> +7.6678988e+04 </wgt>
<wgt id='1463'> +7.6733766e+04 </wgt>
<wgt id='1464'> +7.6740304e+04 </wgt>
<wgt id='1465'> +7.6688889e+04 </wgt>
<wgt id='1466'> +7.6589865e+04 </wgt>
<wgt id='1467'> +7.6609825e+04 </wgt>
<wgt id='1468'> +7.6828544e+04 </wgt>
<wgt id='1469'> +7.6686038e+04 </wgt>
<wgt id='1470'> +7.6702570e+04 </wgt>
<wgt id='1471'> +7.6735586e+04 </wgt>
<wgt id='1472'> +7.6767310e+04 </wgt>
<wgt id='1473'> +7.6744883e+04 </wgt>
<wgt id='1474'> +7.6727343e+04 </wgt>
<wgt id='1475'> +7.6724380e+04 </wgt>
<wgt id='1476'> +7.6719765e+04 </wgt>
<wgt id='1477'> +7.6739953e+04 </wgt>
<wgt id='1478'> +7.6763417e+04 </wgt>
<wgt id='1479'> +7.6712016e+04 </wgt>
<wgt id='1480'> +7.6739425e+04 </wgt>
<wgt id='1481'> +7.6707732e+04 </wgt>
<wgt id='1482'> +7.5279014e+04 </wgt>
<wgt id='1483'> +7.8315509e+04 </wgt>
<wgt id='1484'> +7.5540214e+04 </wgt>
<wgt id='1485'> +7.4216556e+04 </wgt>
<wgt id='1486'> +7.5563222e+04 </wgt>
<wgt id='1487'> +7.4441354e+04 </wgt>
<wgt id='1488'> +7.6150769e+04 </wgt>
<wgt id='1489'> +7.6642634e+04 </wgt>
<wgt id='1490'> +7.3521189e+04 </wgt>
<wgt id='1491'> +7.9598532e+04 </wgt>
<wgt id='1492'> +7.5591567e+04 </wgt>
<wgt id='1493'> +7.4623275e+04 </wgt>
<wgt id='1494'> +7.6573431e+04 </wgt>
<wgt id='1495'> +7.8991731e+04 </wgt>
<wgt id='1496'> +7.7444491e+04 </wgt>
<wgt id='1497'> +7.8266916e+04 </wgt>
<wgt id='1498'> +7.2836419e+04 </wgt>
<wgt id='1499'> +7.5005341e+04 </wgt>
<wgt id='1500'> +7.4860902e+04 </wgt>
<wgt id='1501'> +7.7263764e+04 </wgt>
<wgt id='1502'> +7.5151568e+04 </wgt>
<wgt id='1503'> +7.6715138e+04 </wgt>
<wgt id='1504'> +7.6072819e+04 </wgt>
<wgt id='1505'> +7.5062194e+04 </wgt>
<wgt id='1506'> +7.7066317e+04 </wgt>
<wgt id='1507'> +7.5324782e+04 </wgt>
<wgt id='1508'> +7.8077861e+04 </wgt>
<wgt id='1509'> +7.3883483e+04 </wgt>
<wgt id='1510'> +7.6311922e+04 </wgt>
<wgt id='1511'> +7.3735538e+04 </wgt>
<wgt id='1512'> +7.3985485e+04 </wgt>
<wgt id='1513'> +7.8842581e+04 </wgt>
<wgt id='1514'> +7.7112450e+04 </wgt>
<wgt id='1515'> +7.4874540e+04 </wgt>
<wgt id='1516'> +7.7466407e+04 </wgt>
<wgt id='1517'> +7.2380777e+04 </wgt>
<wgt id='1518'> +7.3703193e+04 </wgt>
<wgt id='1519'> +7.2778415e+04 </wgt>
<wgt id='1520'> +7.4202670e+04 </wgt>
<wgt id='1521'> +7.6230491e+04 </wgt>
<wgt id='1522'> +7.4671681e+04 </wgt>
<wgt id='1523'> +7.6358894e+04 </wgt>
<wgt id='1524'> +7.4359952e+04 </wgt>
<wgt id='1525'> +7.3434557e+04 </wgt>
<wgt id='1526'> +7.4578044e+04 </wgt>
<wgt id='1527'> +7.3943051e+04 </wgt>
<wgt id='1528'> +7.5862274e+04 </wgt>
<wgt id='1529'> +7.6002261e+04 </wgt>
<wgt id='1530'> +7.6189641e+04 </wgt>
<wgt id='1531'> +7.6393667e+04 </wgt>
<wgt id='1532'> +7.4938453e+04 </wgt>
<wgt id='1533'> +7.2832687e+04 </wgt>
<wgt id='1534'> +7.6395532e+04 </wgt>
<wgt id='1535'> +7.7110636e+04 </wgt>
<wgt id='1536'> +7.4127845e+04 </wgt>
<wgt id='1537'> +7.7077334e+04 </wgt>
<wgt id='1538'> +7.6681291e+04 </wgt>
<wgt id='1539'> +7.4880701e+04 </wgt>
<wgt id='1540'> +7.6871229e+04 </wgt>
<wgt id='1541'> +7.3795273e+04 </wgt>
<wgt id='1542'> +7.6904563e+04 </wgt>
<wgt id='1543'> +7.4769013e+04 </wgt>
<wgt id='1544'> +7.4207782e+04 </wgt>
<wgt id='1545'> +7.4191597e+04 </wgt>
<wgt id='1546'> +7.4564627e+04 </wgt>
<wgt id='1547'> +7.6583031e+04 </wgt>
<wgt id='1548'> +7.5006956e+04 </wgt>
<wgt id='1549'> +7.7221258e+04 </wgt>
<wgt id='1550'> +7.6154885e+04 </wgt>
<wgt id='1551'> +7.5609407e+04 </wgt>
<wgt id='1552'> +7.4047278e+04 </wgt>
<wgt id='1553'> +7.5833840e+04 </wgt>
<wgt id='1554'> +7.5529445e+04 </wgt>
<wgt id='1555'> +7.6307534e+04 </wgt>
<wgt id='1556'> +7.6346311e+04 </wgt>
<wgt id='1557'> +7.5657686e+04 </wgt>
<wgt id='1558'> +7.3535217e+04 </wgt>
<wgt id='1559'> +7.4337392e+04 </wgt>
<wgt id='1560'> +7.1698896e+04 </wgt>
<wgt id='1561'> +7.7169901e+04 </wgt>
<wgt id='1562'> +7.5803554e+04 </wgt>
<wgt id='1563'> +7.7192189e+04 </wgt>
<wgt id='1564'> +7.5218312e+04 </wgt>
<wgt id='1565'> +7.2944818e+04 </wgt>
<wgt id='1566'> +7.3948134e+04 </wgt>
<wgt id='1567'> +7.6426943e+04 </wgt>
<wgt id='1568'> +7.5892984e+04 </wgt>
<wgt id='1569'> +7.6353377e+04 </wgt>
<wgt id='1570'> +7.3904609e+04 </wgt>
<wgt id='1571'> +7.5529864e+04 </wgt>
<wgt id='1572'> +7.6936673e+04 </wgt>
<wgt id='1573'> +7.6485719e+04 </wgt>
<wgt id='1574'> +7.6955086e+04 </wgt>
<wgt id='1575'> +7.6103236e+04 </wgt>
<wgt id='1576'> +7.4640334e+04 </wgt>
<wgt id='1577'> +7.6797076e+04 </wgt>
<wgt id='1578'> +7.5109209e+04 </wgt>
<wgt id='1579'> +7.6772711e+04 </wgt>
<wgt id='1580'> +7.6866830e+04 </wgt>
<wgt id='1581'> +7.3649327e+04 </wgt>
<wgt id='1582'> +7.4860117e+04 </wgt>
<wgt id='1583'> +7.5600576e+04 </wgt>
<wgt id='1584'> +7.7131929e+04 </wgt>
<wgt id='1585'> +7.4150112e+04 </wgt>
<wgt id='1586'> +6.2275690e+04 </wgt>
<wgt id='1587'> +7.3777366e+04 </wgt>
<wgt id='1588'> +7.5279014e+04 </wgt>
<wgt id='1589'> +7.6056731e+04 </wgt>
<wgt id='1590'> +7.7967760e+04 </wgt>
<wgt id='1591'> +7.8315509e+04 </wgt>
<wgt id='1592'> +7.9931170e+04 </wgt>
<wgt id='1593'> +6.9558158e+04 </wgt>
<wgt id='1594'> +6.8913334e+04 </wgt>
<wgt id='1595'> +6.9446481e+04 </wgt>
<wgt id='1596'> +6.8680103e+04 </wgt>
<wgt id='1597'> +6.7786415e+04 </wgt>
<wgt id='1598'> +7.1279718e+04 </wgt>
<wgt id='1599'> +6.7912474e+04 </wgt>
<wgt id='1600'> +7.3418275e+04 </wgt>
<wgt id='1601'> +6.6263999e+04 </wgt>
<wgt id='1602'> +7.2615670e+04 </wgt>
<wgt id='1603'> +6.7355575e+04 </wgt>
<wgt id='1604'> +7.0145914e+04 </wgt>
<wgt id='1605'> +6.8223542e+04 </wgt>
<wgt id='1606'> +6.7172991e+04 </wgt>
<wgt id='1607'> +7.0897724e+04 </wgt>
<wgt id='1608'> +6.6375644e+04 </wgt>
<wgt id='1609'> +6.8985143e+04 </wgt>
<wgt id='1610'> +6.8085861e+04 </wgt>
<wgt id='1611'> +7.1074339e+04 </wgt>
<wgt id='1612'> +6.7809216e+04 </wgt>
<wgt id='1613'> +7.2176406e+04 </wgt>
<wgt id='1614'> +6.8805539e+04 </wgt>
<wgt id='1615'> +7.0837978e+04 </wgt>
<wgt id='1616'> +6.8912518e+04 </wgt>
<wgt id='1617'> +6.9296922e+04 </wgt>
<wgt id='1618'> +6.9513503e+04 </wgt>
<wgt id='1619'> +6.9579707e+04 </wgt>
<wgt id='1620'> +6.9895101e+04 </wgt>
<wgt id='1621'> +6.7682332e+04 </wgt>
<wgt id='1622'> +6.8265244e+04 </wgt>
<wgt id='1623'> +7.0126916e+04 </wgt>
<wgt id='1624'> +7.0324759e+04 </wgt>
<wgt id='1625'> +6.6146689e+04 </wgt>
<wgt id='1626'> +6.9243495e+04 </wgt>
<wgt id='1627'> +6.9494707e+04 </wgt>
<wgt id='1628'> +6.9261663e+04 </wgt>
<wgt id='1629'> +6.7237744e+04 </wgt>
<wgt id='1630'> +6.5549121e+04 </wgt>
<wgt id='1631'> +7.3995690e+04 </wgt>
<wgt id='1632'> +6.6809617e+04 </wgt>
<wgt id='1633'> +7.2008681e+04 </wgt>
<wgt id='1634'> +6.6977623e+04 </wgt>
<wgt id='1635'> +7.2207408e+04 </wgt>
<wgt id='1636'> +6.8760628e+04 </wgt>
<wgt id='1637'> +6.9142293e+04 </wgt>
<wgt id='1638'> +7.0574432e+04 </wgt>
<wgt id='1639'> +6.7203205e+04 </wgt>
<wgt id='1640'> +6.9125278e+04 </wgt>
<wgt id='1641'> +6.8807772e+04 </wgt>
<wgt id='1642'> +6.8128192e+04 </wgt>
<wgt id='1643'> +6.9316937e+04 </wgt>
<wgt id='1644'> +6.6373089e+04 </wgt>
<wgt id='1645'> +7.3852464e+04 </wgt>
<wgt id='1646'> +6.5814660e+04 </wgt>
<wgt id='1647'> +7.1169903e+04 </wgt>
<wgt id='1648'> +6.7509480e+04 </wgt>
<wgt id='1649'> +7.0652583e+04 </wgt>
<wgt id='1650'> +6.9624232e+04 </wgt>
<wgt id='1651'> +6.9513266e+04 </wgt>
<wgt id='1652'> +6.8417851e+04 </wgt>
<wgt id='1653'> +6.9021404e+04 </wgt>
<wgt id='1654'> +7.0032903e+04 </wgt>
<wgt id='1655'> +7.0454939e+04 </wgt>
<wgt id='1656'> +7.5642299e+04 </wgt>
<wgt id='1657'> +7.5256085e+04 </wgt>
<wgt id='1658'> +7.5133297e+04 </wgt>
<wgt id='1659'> +7.5178033e+04 </wgt>
<wgt id='1660'> +7.5931537e+04 </wgt>
<wgt id='1661'> +7.3962056e+04 </wgt>
<wgt id='1662'> +7.6496191e+04 </wgt>
<wgt id='1663'> +7.5389619e+04 </wgt>
<wgt id='1664'> +7.5045718e+04 </wgt>
<wgt id='1665'> +7.5129654e+04 </wgt>
<wgt id='1666'> +7.5608024e+04 </wgt>
<wgt id='1667'> +7.3604505e+04 </wgt>
<wgt id='1668'> +7.7086452e+04 </wgt>
<wgt id='1669'> +7.2596527e+04 </wgt>
<wgt id='1670'> +7.9536197e+04 </wgt>
<wgt id='1671'> +7.5297037e+04 </wgt>
<wgt id='1672'> +7.5846226e+04 </wgt>
<wgt id='1673'> +7.7954491e+04 </wgt>
<wgt id='1674'> +7.4056119e+04 </wgt>
<wgt id='1675'> +7.5942167e+04 </wgt>
<wgt id='1676'> +7.3932940e+04 </wgt>
<wgt id='1677'> +7.6459253e+04 </wgt>
<wgt id='1678'> +7.4359187e+04 </wgt>
<wgt id='1679'> +7.8811683e+04 </wgt>
<wgt id='1680'> +7.2809879e+04 </wgt>
<wgt id='1681'> +7.5901752e+04 </wgt>
<wgt id='1682'> +7.4691974e+04 </wgt>
<wgt id='1683'> +7.5845717e+04 </wgt>
<wgt id='1684'> +7.4749095e+04 </wgt>
<wgt id='1685'> +7.7094327e+04 </wgt>
<wgt id='1686'> +7.3175682e+04 </wgt>
<wgt id='1687'> +7.2468669e+04 </wgt>
<wgt id='1688'> +8.0417884e+04 </wgt>
<wgt id='1689'> +7.3438787e+04 </wgt>
<wgt id='1690'> +7.8244133e+04 </wgt>
<wgt id='1691'> +7.5047885e+04 </wgt>
<wgt id='1692'> +7.5849993e+04 </wgt>
<wgt id='1693'> +7.2291632e+04 </wgt>
<wgt id='1694'> +7.8837468e+04 </wgt>
<wgt id='1695'> +7.4824690e+04 </wgt>
<wgt id='1696'> +7.6326900e+04 </wgt>
<wgt id='1697'> +7.4613370e+04 </wgt>
<wgt id='1698'> +7.6825223e+04 </wgt>
<wgt id='1699'> +7.5386469e+04 </wgt>
<wgt id='1700'> +7.3735826e+04 </wgt>
<wgt id='1701'> +7.6637118e+04 </wgt>
<wgt id='1702'> +7.4557511e+04 </wgt>
<wgt id='1703'> +7.6693174e+04 </wgt>
<wgt id='1704'> +7.5064880e+04 </wgt>
<wgt id='1705'> +7.5551583e+04 </wgt>
<wgt id='1706'> +7.4838583e+04 </wgt>
<wgt id='1707'> +7.5309508e+04 </wgt>
<wgt id='1708'> +7.5428582e+04 </wgt>
<wgt id='1709'> +7.2234355e+04 </wgt>
<wgt id='1710'> +7.7057752e+04 </wgt>
<wgt id='1711'> +7.3972820e+04 </wgt>
<wgt id='1712'> +7.6260489e+04 </wgt>
<wgt id='1713'> +7.4869401e+04 </wgt>
<wgt id='1714'> +7.5838503e+04 </wgt>
<wgt id='1715'> +7.6234558e+04 </wgt>
<wgt id='1716'> +7.0291458e+04 </wgt>
<wgt id='1717'> +7.6925081e+04 </wgt>
<wgt id='1718'> +7.7153588e+04 </wgt>
<wgt id='1719'> +7.6632193e+04 </wgt>
<wgt id='1720'> +7.7514828e+04 </wgt>
<wgt id='1721'> +7.6386405e+04 </wgt>
<wgt id='1722'> +7.7148424e+04 </wgt>
<wgt id='1723'> +7.6559237e+04 </wgt>
<wgt id='1724'> +7.5810336e+04 </wgt>
<wgt id='1725'> +7.7830604e+04 </wgt>
<wgt id='1726'> +7.6007438e+04 </wgt>
<wgt id='1727'> +7.7871232e+04 </wgt>
<wgt id='1728'> +7.6941163e+04 </wgt>
<wgt id='1729'> +7.6909782e+04 </wgt>
<wgt id='1730'> +7.6694410e+04 </wgt>
<wgt id='1731'> +7.7089745e+04 </wgt>
<wgt id='1732'> +7.6939661e+04 </wgt>
<wgt id='1733'> +7.6939661e+04 </wgt>
<wgt id='1734'> +7.7064397e+04 </wgt>
<wgt id='1735'> +7.6827947e+04 </wgt>
<wgt id='1736'> +7.7308923e+04 </wgt>
<wgt id='1737'> +7.6401370e+04 </wgt>
<wgt id='1738'> +7.7212262e+04 </wgt>
<wgt id='1739'> +7.6444318e+04 </wgt>
<wgt id='1740'> +7.6832750e+04 </wgt>
<wgt id='1741'> +7.7147493e+04 </wgt>
<wgt id='1742'> +7.6704650e+04 </wgt>
<wgt id='1743'> +7.7185433e+04 </wgt>
<wgt id='1744'> +7.6624345e+04 </wgt>
<wgt id='1745'> +7.7736521e+04 </wgt>
<wgt id='1746'> +7.6656291e+04 </wgt>
<wgt id='1747'> +7.7069642e+04 </wgt>
<wgt id='1748'> +7.7049248e+04 </wgt>
<wgt id='1749'> +7.6468027e+04 </wgt>
<wgt id='1750'> +7.6892802e+04 </wgt>
<wgt id='1751'> +7.6960654e+04 </wgt>
<wgt id='1752'> +7.6773673e+04 </wgt>
<wgt id='1753'> +7.7136313e+04 </wgt>
<wgt id='1754'> +7.7136931e+04 </wgt>
<wgt id='1755'> +7.6809411e+04 </wgt>
<wgt id='1756'> +7.7177602e+04 </wgt>
<wgt id='1757'> +7.6316691e+04 </wgt>
<wgt id='1758'> +7.6765110e+04 </wgt>
<wgt id='1759'> +7.7057224e+04 </wgt>
<wgt id='1760'> +7.6623605e+04 </wgt>
<wgt id='1761'> +7.7287896e+04 </wgt>
<wgt id='1762'> +7.6926999e+04 </wgt>
<wgt id='1763'> +7.6381797e+04 </wgt>
<wgt id='1764'> +7.6967620e+04 </wgt>
<wgt id='1765'> +7.6733673e+04 </wgt>
<wgt id='1766'> +7.6797265e+04 </wgt>
<wgt id='1767'> +7.7105209e+04 </wgt>
<wgt id='1768'> +7.6961199e+04 </wgt>
<wgt id='1769'> +7.6854731e+04 </wgt>
<wgt id='1770'> +7.6735955e+04 </wgt>
<wgt id='1771'> +7.6835741e+04 </wgt>
<wgt id='1772'> +7.7147555e+04 </wgt>
<wgt id='1773'> +7.6831736e+04 </wgt>
<wgt id='1774'> +7.8178065e+04 </wgt>
<wgt id='1775'> +7.6104584e+04 </wgt>
<wgt id='1776'> +7.6312987e+04 </wgt>
<wgt id='1777'> +7.7162431e+04 </wgt>
<wgt id='1778'> +7.7245799e+04 </wgt>
<wgt id='1779'> +7.6644152e+04 </wgt>
<wgt id='1780'> +7.5495592e+04 </wgt>
<wgt id='1781'> +7.6093664e+04 </wgt>
<wgt id='1782'> +7.6925081e+04 </wgt>
<wgt id='1783'> +7.6908928e+04 </wgt>
<wgt id='1784'> +7.4760862e+04 </wgt>
<wgt id='1785'> +7.5869807e+04 </wgt>
<wgt id='1786'> +7.9280605e+04 </wgt>
<wgt id='1787'> +7.4969475e+04 </wgt>
<wgt id='1788'> +7.4372864e+04 </wgt>
<wgt id='1789'> +7.4702321e+04 </wgt>
<wgt id='1790'> +7.5014359e+04 </wgt>
<wgt id='1791'> +7.4643900e+04 </wgt>
<wgt id='1792'> +7.5159709e+04 </wgt>
<wgt id='1793'> +7.5188153e+04 </wgt>
<wgt id='1794'> +7.4345892e+04 </wgt>
<wgt id='1795'> +7.4613754e+04 </wgt>
<wgt id='1796'> +7.4973316e+04 </wgt>
<wgt id='1797'> +7.2933314e+04 </wgt>
<wgt id='1798'> +7.4923728e+04 </wgt>
<wgt id='1799'> +7.5011552e+04 </wgt>
<wgt id='1800'> +7.3339608e+04 </wgt>
<wgt id='1801'> +7.4275512e+04 </wgt>
<wgt id='1802'> +7.4652049e+04 </wgt>
<wgt id='1803'> +7.4203816e+04 </wgt>
<wgt id='1804'> +7.4909619e+04 </wgt>
<wgt id='1805'> +7.6289443e+04 </wgt>
<wgt id='1806'> +7.4102259e+04 </wgt>
<wgt id='1807'> +7.4912927e+04 </wgt>
<wgt id='1808'> +7.4577756e+04 </wgt>
<wgt id='1809'> +7.4827250e+04 </wgt>
<wgt id='1810'> +7.5065327e+04 </wgt>
<wgt id='1811'> +7.4874671e+04 </wgt>
<wgt id='1812'> +7.5841869e+04 </wgt>
<wgt id='1813'> +7.6559213e+04 </wgt>
<wgt id='1814'> +7.4804389e+04 </wgt>
<wgt id='1815'> +7.4609365e+04 </wgt>
<wgt id='1816'> +7.5029474e+04 </wgt>
<wgt id='1817'> +7.4817470e+04 </wgt>
<wgt id='1818'> +7.4981544e+04 </wgt>
<wgt id='1819'> +7.4845128e+04 </wgt>
<wgt id='1820'> +7.4037182e+04 </wgt>
<wgt id='1821'> +7.4733524e+04 </wgt>
<wgt id='1822'> +7.4724914e+04 </wgt>
<wgt id='1823'> +7.2868078e+04 </wgt>
<wgt id='1824'> +7.4802515e+04 </wgt>
<wgt id='1825'> +7.4031690e+04 </wgt>
<wgt id='1826'> +7.5454259e+04 </wgt>
<wgt id='1827'> +7.5802756e+04 </wgt>
<wgt id='1828'> +7.5833539e+04 </wgt>
<wgt id='1829'> +7.5766359e+04 </wgt>
<wgt id='1830'> +7.5889380e+04 </wgt>
<wgt id='1831'> +7.5710165e+04 </wgt>
<wgt id='1832'> +7.5981498e+04 </wgt>
<wgt id='1833'> +7.5618726e+04 </wgt>
<wgt id='1834'> +7.5773261e+04 </wgt>
<wgt id='1835'> +7.5823273e+04 </wgt>
<wgt id='1836'> +7.6023064e+04 </wgt>
<wgt id='1837'> +7.5575106e+04 </wgt>
<wgt id='1838'> +7.5921991e+04 </wgt>
<wgt id='1839'> +7.5677843e+04 </wgt>
<wgt id='1840'> +7.5584343e+04 </wgt>
<wgt id='1841'> +7.6019902e+04 </wgt>
<wgt id='1842'> +7.5743391e+04 </wgt>
<wgt id='1843'> +7.5936055e+04 </wgt>
<wgt id='1844'> +7.5793214e+04 </wgt>
<wgt id='1845'> +7.5784785e+04 </wgt>
<wgt id='1846'> +7.5679153e+04 </wgt>
<wgt id='1847'> +7.5910729e+04 </wgt>
<wgt id='1848'> +7.5347287e+04 </wgt>
<wgt id='1849'> +7.6111935e+04 </wgt>
<wgt id='1850'> +7.6248671e+04 </wgt>
<wgt id='1851'> +7.5341222e+04 </wgt>
<wgt id='1852'> +7.6369505e+04 </wgt>
<wgt id='1853'> +7.5046225e+04 </wgt>
<wgt id='1854'> +7.6364636e+04 </wgt>
<wgt id='1855'> +7.5359952e+04 </wgt>
<wgt id='1856'> +7.6090973e+04 </wgt>
<wgt id='1857'> +7.6069074e+04 </wgt>
<wgt id='1858'> +7.6097956e+04 </wgt>
<wgt id='1859'> +7.6036923e+04 </wgt>
<wgt id='1860'> +7.6094212e+04 </wgt>
<wgt id='1861'> +7.6294130e+04 </wgt>
<wgt id='1862'> +7.6389460e+04 </wgt>
<wgt id='1863'> +7.5481421e+04 </wgt>
<wgt id='1864'> +7.6271703e+04 </wgt>
<wgt id='1865'> +7.6204205e+04 </wgt>
<wgt id='1866'> +7.6051366e+04 </wgt>
<wgt id='1867'> +7.6077173e+04 </wgt>
<wgt id='1868'> +7.6149776e+04 </wgt>
<wgt id='1869'> +7.6074170e+04 </wgt>
<wgt id='1870'> +7.6014303e+04 </wgt>
<wgt id='1871'> +7.6095858e+04 </wgt>
<wgt id='1872'> +7.6146279e+04 </wgt>
<wgt id='1873'> +7.6089786e+04 </wgt>
<wgt id='1874'> +7.6023560e+04 </wgt>
<wgt id='1875'> +7.6175174e+04 </wgt>
<wgt id='1876'> +7.5802867e+04 </wgt>
<wgt id='1877'> +7.6350180e+04 </wgt>
<wgt id='1878'> +7.5643720e+04 </wgt>
<wgt id='1879'> +7.6256347e+04 </wgt>
<wgt id='1880'> +7.6432791e+04 </wgt>
<wgt id='1881'> +7.6537051e+04 </wgt>
<wgt id='1882'> +7.6159591e+04 </wgt>
<wgt id='1883'> +7.5900949e+04 </wgt>
<wgt id='1884'> +7.6181644e+04 </wgt>
<wgt id='1885'> +7.5362452e+04 </wgt>
<wgt id='1886'> +3.1827010e+04 </wgt>
<wgt id='1887'> +4.2540362e+04 </wgt>
<wgt id='1888'> +5.0269222e+04 </wgt>
<wgt id='1889'> +5.8783308e+04 </wgt>
</rwgt>
</event>
<event npLO=" -1 " npNLO=" 0 ">
 5      0 +7.4519530e+04 3.98204840e+01 7.55820760e-03 1.00771330e-01
        2 -1    0    0  501    0 +0.0000000000e+00 +0.0000000000e+00 +6.8433307937e+02 6.8433307937e+02 0.0000000000e+00 0.0000e+00 -1.0000e+00
       -1 -1    0    0    0  501 +0.0000000000e+00 +0.0000000000e+00 -2.3449528592e+00 2.3449528592e+00 0.0000000000e+00 0.0000e+00 1.0000e+00
       24  2    1    2    0    0 +0.0000000000e+00 +0.0000000000e+00 +6.8198812651e+02 6.8667803223e+02 8.0118133056e+01 0.0000e+00 0.0000e+00
      -15  1    3    3    0    0 +4.3538102540e-01 +3.9798277921e+01 +3.0374564336e+02 3.0634729650e+02 1.7770000000e+00 0.0000e+00 1.0000e+00
       16  1    3    3    0    0 -4.3538102540e-01 -3.9798277921e+01 +3.7824248315e+02 3.8033073573e+02 0.0000000000e+00 0.0000e+00 -1.0000e+00
#aMCatNLO 1  0  0  2  1 0.33986421E+03 0.00000000E+00 -9  5  0 0.00000000E+00 0.00000000E+00 0.00000000E+00 0.00000000E+00 0.00000000E+00
<rwgt>
<wgt id='1001'> +7.4519530e+04 </wgt>
<wgt id='1002'> +7.3374790e+04 </wgt>
<wgt id='1003'> +7.5946072e+04 </wgt>
<wgt id='1004'> +7.3606244e+04 </wgt>
<wgt id='1005'> +7.3240799e+04 </wgt>
<wgt id='1006'> +7.4061649e+04 </wgt>
<wgt id='1007'> +7.5060727e+04 </wgt>
<wgt id='1008'> +7.3117050e+04 </wgt>
<wgt id='1009'> +7.7482875e+04 </wgt>
<wgt id='1010'> +7.4519530e+04 </wgt>
<wgt id='1011'> +7.4557440e+04 </wgt>
<wgt id='1012'> +7.4621457e+04 </wgt>
<wgt id='1013'> +7.4079293e+04 </wgt>
<wgt id='1014'> +7.4524198e+04 </wgt>
<wgt id='1015'> +7.4364152e+04 </wgt>
<wgt id='1016'> +7.4525486e+04 </wgt>
<wgt id='1017'> +7.4535488e+04 </wgt>
<wgt id='1018'> +7.4462026e+04 </wgt>
<wgt id='1019'> +7.4364145e+04 </wgt>
<wgt id='1020'> +7.4229427e+04 </wgt>
<wgt id='1021'> +7.4488864e+04 </wgt>
<wgt id='1022'> +7.4464984e+04 </wgt>
<wgt id='1023'> +7.4593307e+04 </wgt>
<wgt id='1024'> +7.4529687e+04 </wgt>
<wgt id='1025'> +7.4722892e+04 </wgt>
<wgt id='1026'> +7.4451758e+04 </wgt>
<wgt id='1027'> +7.4506547e+04 </wgt>
<wgt id='1028'> +7.4649518e+04 </wgt>
<wgt id='1029'> +7.4746305e+04 </wgt>
<wgt id='1030'> +7.4849171e+04 </wgt>
<wgt id='1031'> +7.4637343e+04 </wgt>
<wgt id='1032'> +7.4609414e+04 </wgt>
<wgt id='1033'> +7.4481403e+04 </wgt>
<wgt id='1034'> +7.4665681e+04 </wgt>
<wgt id='1035'> +7.4486762e+04 </wgt>
<wgt id='1036'> +7.4329311e+04 </wgt>
<wgt id='1037'> +7.4751949e+04 </wgt>
<wgt id='1038'> +7.4659040e+04 </wgt>
<wgt id='1039'> +7.4789686e+04 </wgt>
<wgt id='1040'> +7.4381289e+04 </wgt>
<wgt id='1041'> +7.4951278e+04 </wgt>
<wgt id='1042'> +7.4572858e+04 </wgt>
<wgt id='1043'> +7.4574996e+04 </wgt>
<wgt id='1044'> +7.4646585e+04 </wgt>
<wgt id='1045'> +7.4498843e+04 </wgt>
<wgt id='1046'> +7.4322456e+04 </wgt>
<wgt id='1047'> +7.4628928e+04 </wgt>
<wgt id='1048'> +7.4550873e+04 </wgt>
<wgt id='1049'> +7.4487965e+04 </wgt>
<wgt id='1050'> +7.4680754e+04 </wgt>
<wgt id='1051'> +7.4832329e+04 </wgt>
<wgt id='1052'> +7.4586475e+04 </wgt>
<wgt id='1053'> +7.4521107e+04 </wgt>
<wgt id='1054'> +7.4429933e+04 </wgt>
<wgt id='1055'> +7.4498885e+04 </wgt>
<wgt id='1056'> +7.4508965e+04 </wgt>
<wgt id='1057'> +7.4397953e+04 </wgt>
<wgt id='1058'> +7.4358187e+04 </wgt>
<wgt id='1059'> +7.4607811e+04 </wgt>
<wgt id='1060'> +7.4402319e+04 </wgt>
<wgt id='1061'> +7.4488560e+04 </wgt>
<wgt id='1062'> +7.4605023e+04 </wgt>
<wgt id='1063'> +7.4530316e+04 </wgt>
<wgt id='1064'> +7.4599009e+04 </wgt>
<wgt id='1065'> +7.4558001e+04 </wgt>
<wgt id='1066'> +7.4573947e+04 </wgt>
<wgt id='1067'> +7.4624837e+04 </wgt>
<wgt id='1068'> +7.4559915e+04 </wgt>
<wgt id='1069'> +7.4571874e+04 </wgt>
<wgt id='1070'> +7.4500766e+04 </wgt>
<wgt id='1071'> +7.4566576e+04 </wgt>
<wgt id='1072'> +7.4503746e+04 </wgt>
<wgt id='1073'> +7.4446162e+04 </wgt>
<wgt id='1074'> +7.4468383e+04 </wgt>
<wgt id='1075'> +7.4552873e+04 </wgt>
<wgt id='1076'> +7.4526470e+04 </wgt>
<wgt id='1077'> +7.4539888e+04 </wgt>
<wgt id='1078'> +7.4491255e+04 </wgt>
<wgt id='1079'> +7.4570232e+04 </wgt>
<wgt id='1080'> +7.4490026e+04 </wgt>
<wgt id='1081'> +7.4504819e+04 </wgt>
<wgt id='1082'> +7.4567573e+04 </wgt>
<wgt id='1083'> +7.4423822e+04 </wgt>
<wgt id='1084'> +7.4516297e+04 </wgt>
<wgt id='1085'> +7.4464479e+04 </wgt>
<wgt id='1086'> +7.4548795e+04 </wgt>
<wgt id='1087'> +7.4612790e+04 </wgt>
<wgt id='1088'> +7.4550226e+04 </wgt>
<wgt id='1089'> +7.4502157e+04 </wgt>
<wgt id='1090'> +7.4571309e+04 </wgt>
<wgt id='1091'> +7.4449378e+04 </wgt>
<wgt id='1092'> +7.4513577e+04 </wgt>
<wgt id='1093'> +7.4502190e+04 </wgt>
<wgt id='1094'> +7.4560239e+04 </wgt>
<wgt id='1095'> +7.4540427e+04 </wgt>
<wgt id='1096'> +7.4519937e+04 </wgt>
<wgt id='1097'> +7.4467890e+04 </wgt>
<wgt id='1098'> +7.4511997e+04 </wgt>
<wgt id='1099'> +7.4529868e+04 </wgt>
<wgt id='1100'> +7.4520551e+04 </wgt>
<wgt id='1101'> +7.4523017e+04 </wgt>
<wgt id='1102'> +7.4552317e+04 </wgt>
<wgt id='1103'> +7.4539923e+04 </wgt>
<wgt id='1104'> +7.4501899e+04 </wgt>
<wgt id='1105'> +7.4524218e+04 </wgt>
<wgt id='1106'> +7.4499552e+04 </wgt>
<wgt id='1107'> +7.4527209e+04 </wgt>
<wgt id='1108'> +7.4531107e+04 </wgt>
<wgt id='1109'> +7.4534511e+04 </wgt>
<wgt id='1110'> +7.4519532e+04 </wgt>
<wgt id='1111'> +7.3665054e+04 </wgt>
<wgt id='1112'> +7.5221282e+04 </wgt>
<wgt id='1113'> +7.4519532e+04 </wgt>
<wgt id='1114'> +7.4449799e+04 </wgt>
<wgt id='1115'> +7.6724803e+04 </wgt>
<wgt id='1116'> +7.1912287e+04 </wgt>
<wgt id='1117'> +7.3491140e+04 </wgt>
<wgt id='1118'> +7.2956827e+04 </wgt>
<wgt id='1119'> +7.4507840e+04 </wgt>
<wgt id='1120'> +7.6645802e+04 </wgt>
<wgt id='1121'> +7.3948297e+04 </wgt>
<wgt id='1122'> +7.4351706e+04 </wgt>
<wgt id='1123'> +7.2824616e+04 </wgt>
<wgt id='1124'> +7.3689829e+04 </wgt>
<wgt id='1125'> +7.3458946e+04 </wgt>
<wgt id='1126'> +7.4776531e+04 </wgt>
<wgt id='1127'> +7.4526733e+04 </wgt>
<wgt id='1128'> +7.5419950e+04 </wgt>
<wgt id='1129'> +7.4386143e+04 </wgt>
<wgt id='1130'> +7.4878437e+04 </wgt>
<wgt id='1131'> +7.4082321e+04 </wgt>
<wgt id='1132'> +7.6140692e+04 </wgt>
<wgt id='1133'> +7.4248724e+04 </wgt>
<wgt id='1134'> +7.4422730e+04 </wgt>
<wgt id='1135'> +7.5769707e+04 </wgt>
<wgt id='1136'> +7.6449957e+04 </wgt>
<wgt id='1137'> +7.3520359e+04 </wgt>
<wgt id='1138'> +7.5496923e+04 </wgt>
<wgt id='1139'> +7.4132708e+04 </wgt>
<wgt id='1140'> +7.5942856e+04 </wgt>
<wgt id='1141'> +7.4968384e+04 </wgt>
<wgt id='1142'> +7.5207210e+04 </wgt>
<wgt id='1143'> +7.6944389e+04 </wgt>
<wgt id='1144'> +7.3266757e+04 </wgt>
<wgt id='1145'> +7.4042056e+04 </wgt>
<wgt id='1146'> +7.5450930e+04 </wgt>
<wgt id='1147'> +7.3476967e+04 </wgt>
<wgt id='1148'> +7.2782585e+04 </wgt>
<wgt id='1149'> +7.4404792e+04 </wgt>
<wgt id='1150'> +7.3423342e+04 </wgt>
<wgt id='1151'> +7.4280897e+04 </wgt>
<wgt id='1152'> +7.6392414e+04 </wgt>
<wgt id='1153'> +7.4762870e+04 </wgt>
<wgt id='1154'> +7.4994034e+04 </wgt>
<wgt id='1155'> +7.5054014e+04 </wgt>
<wgt id='1156'> +7.4438678e+04 </wgt>
<wgt id='1157'> +7.5171598e+04 </wgt>
<wgt id='1158'> +7.3651636e+04 </wgt>
<wgt id='1159'> +7.4393205e+04 </wgt>
<wgt id='1160'> +7.5855439e+04 </wgt>
<wgt id='1161'> +7.2835940e+04 </wgt>
<wgt id='1162'> +7.7332092e+04 </wgt>
<wgt id='1163'> +7.4015027e+04 </wgt>
<wgt id='1164'> +7.3125307e+04 </wgt>
<wgt id='1165'> +7.4932119e+04 </wgt>
<wgt id='1166'> +7.6023562e+04 </wgt>
<wgt id='1167'> +7.5313177e+04 </wgt>
<wgt id='1168'> +7.3746741e+04 </wgt>
<wgt id='1169'> +7.4236920e+04 </wgt>
<wgt id='1170'> +7.5116006e+04 </wgt>
<wgt id='1171'> +7.5277781e+04 </wgt>
<wgt id='1172'> +7.5982249e+04 </wgt>
<wgt id='1173'> +7.3474962e+04 </wgt>
<wgt id='1174'> +7.5110562e+04 </wgt>
<wgt id='1175'> +7.4098204e+04 </wgt>
<wgt id='1176'> +7.4306817e+04 </wgt>
<wgt id='1177'> +7.2522439e+04 </wgt>
<wgt id='1178'> +7.4993107e+04 </wgt>
<wgt id='1179'> +7.5042369e+04 </wgt>
<wgt id='1180'> +7.3975558e+04 </wgt>
<wgt id='1181'> +7.5998456e+04 </wgt>
<wgt id='1182'> +7.6218212e+04 </wgt>
<wgt id='1183'> +7.5120266e+04 </wgt>
<wgt id='1184'> +7.4616171e+04 </wgt>
<wgt id='1185'> +7.5174004e+04 </wgt>
<wgt id='1186'> +7.2480624e+04 </wgt>
<wgt id='1187'> +7.4643360e+04 </wgt>
<wgt id='1188'> +7.3784133e+04 </wgt>
<wgt id='1189'> +7.5132384e+04 </wgt>
<wgt id='1190'> +7.4205997e+04 </wgt>
<wgt id='1191'> +7.5921122e+04 </wgt>
<wgt id='1192'> +7.3692323e+04 </wgt>
<wgt id='1193'> +7.3152220e+04 </wgt>
<wgt id='1194'> +7.4248095e+04 </wgt>
<wgt id='1195'> +7.4386143e+04 </wgt>
<wgt id='1196'> +7.2417696e+04 </wgt>
<wgt id='1197'> +7.3903276e+04 </wgt>
<wgt id='1198'> +7.5042792e+04 </wgt>
<wgt id='1199'> +7.5737655e+04 </wgt>
<wgt id='1200'> +7.4254933e+04 </wgt>
<wgt id='1201'> +7.3966008e+04 </wgt>
<wgt id='1202'> +7.0780185e+04 </wgt>
<wgt id='1203'> +7.4017028e+04 </wgt>
<wgt id='1204'> +7.5073390e+04 </wgt>
<wgt id='1205'> +7.4816720e+04 </wgt>
<wgt id='1206'> +7.3970440e+04 </wgt>
<wgt id='1207'> +7.5609187e+04 </wgt>
<wgt id='1208'> +7.3323513e+04 </wgt>
<wgt id='1209'> +7.6279622e+04 </wgt>
<wgt id='1210'> +7.1886651e+04 </wgt>
<wgt id='1211'> +7.5066043e+04 </wgt>
<wgt id='1212'> +7.4290059e+04 </wgt>
<wgt id='1213'> +7.4759112e+04 </wgt>
<wgt id='1214'> +7.4487874e+04 </wgt>
<wgt id='1215'> +7.0758227e+04 </wgt>
<wgt id='1216'> +7.1308520e+04 </wgt>
<wgt id='1217'> +7.2184021e+04 </wgt>
<wgt id='1218'> +7.3082943e+04 </wgt>
<wgt id='1219'> +7.4430881e+04 </wgt>
<wgt id='1220'> +7.4875639e+04 </wgt>
<wgt id='1221'> +7.6191729e+04 </wgt>
<wgt id='1222'> +7.6777220e+04 </wgt>
<wgt id='1223'> +7.3258760e+04 </wgt>
<wgt id='1224'> +7.3098775e+04 </wgt>
<wgt id='1225'> +7.3619983e+04 </wgt>
<wgt id='1226'> +7.3012986e+04 </wgt>
<wgt id='1227'> +7.3476759e+04 </wgt>
<wgt id='1228'> +7.3276721e+04 </wgt>
<wgt id='1229'> +7.2907503e+04 </wgt>
<wgt id='1230'> +7.3464016e+04 </wgt>
<wgt id='1231'> +7.3619833e+04 </wgt>
<wgt id='1232'> +7.3510641e+04 </wgt>
<wgt id='1233'> +7.3115247e+04 </wgt>
<wgt id='1234'> +7.3122859e+04 </wgt>
<wgt id='1235'> +7.3384988e+04 </wgt>
<wgt id='1236'> +7.3446021e+04 </wgt>
<wgt id='1237'> +7.3187196e+04 </wgt>
<wgt id='1238'> +7.3356023e+04 </wgt>
<wgt id='1239'> +7.3470848e+04 </wgt>
<wgt id='1240'> +7.3294771e+04 </wgt>
<wgt id='1241'> +7.3374096e+04 </wgt>
<wgt id='1242'> +7.3294103e+04 </wgt>
<wgt id='1243'> +7.3185027e+04 </wgt>
<wgt id='1244'> +7.3324230e+04 </wgt>
<wgt id='1245'> +7.3264174e+04 </wgt>
<wgt id='1246'> +7.3204999e+04 </wgt>
<wgt id='1247'> +7.3454152e+04 </wgt>
<wgt id='1248'> +7.3081405e+04 </wgt>
<wgt id='1249'> +7.3270099e+04 </wgt>
<wgt id='1250'> +7.3222534e+04 </wgt>
<wgt id='1251'> +7.3360505e+04 </wgt>
<wgt id='1252'> +7.3579923e+04 </wgt>
<wgt id='1253'> +7.2731383e+04 </wgt>
<wgt id='1254'> +7.2931335e+04 </wgt>
<wgt id='1255'> +7.3401100e+04 </wgt>
<wgt id='1256'> +7.3342307e+04 </wgt>
<wgt id='1257'> +7.3190041e+04 </wgt>
<wgt id='1258'> +7.3363206e+04 </wgt>
<wgt id='1259'> +7.3342131e+04 </wgt>
<wgt id='1260'> +7.3097793e+04 </wgt>
<wgt id='1261'> +7.3263228e+04 </wgt>
<wgt id='1262'> +7.3298739e+04 </wgt>
<wgt id='1263'> +7.3239222e+04 </wgt>
<wgt id='1264'> +7.3337447e+04 </wgt>
<wgt id='1265'> +7.3348578e+04 </wgt>
<wgt id='1266'> +7.3160134e+04 </wgt>
<wgt id='1267'> +7.3279610e+04 </wgt>
<wgt id='1268'> +7.3309468e+04 </wgt>
<wgt id='1269'> +7.3209156e+04 </wgt>
<wgt id='1270'> +7.3235917e+04 </wgt>
<wgt id='1271'> +7.3394723e+04 </wgt>
<wgt id='1272'> +7.3283794e+04 </wgt>
<wgt id='1273'> +7.3195888e+04 </wgt>
<wgt id='1274'> +7.3272763e+04 </wgt>
<wgt id='1275'> +7.3308187e+04 </wgt>
<wgt id='1276'> +7.3143044e+04 </wgt>
<wgt id='1277'> +7.3248907e+04 </wgt>
<wgt id='1278'> +7.3272061e+04 </wgt>
<wgt id='1279'> +7.3142670e+04 </wgt>
<wgt id='1280'> +7.3287699e+04 </wgt>
<wgt id='1281'> +7.3149985e+04 </wgt>
<wgt id='1282'> +7.3284578e+04 </wgt>
<wgt id='1283'> +7.3253338e+04 </wgt>
<wgt id='1284'> +7.3258669e+04 </wgt>
<wgt id='1285'> +7.3162592e+04 </wgt>
<wgt id='1286'> +7.3300483e+04 </wgt>
<wgt id='1287'> +7.3175658e+04 </wgt>
<wgt id='1288'> +7.3317517e+04 </wgt>
<wgt id='1289'> +7.3274361e+04 </wgt>
<wgt id='1290'> +7.3139069e+04 </wgt>
<wgt id='1291'> +7.3320118e+04 </wgt>
<wgt id='1292'> +7.3210245e+04 </wgt>
<wgt id='1293'> +7.3252674e+04 </wgt>
<wgt id='1294'> +7.3243155e+04 </wgt>
<wgt id='1295'> +7.3287283e+04 </wgt>
<wgt id='1296'> +7.3260060e+04 </wgt>
<wgt id='1297'> +7.3354427e+04 </wgt>
<wgt id='1298'> +7.3229159e+04 </wgt>
<wgt id='1299'> +7.3284686e+04 </wgt>
<wgt id='1300'> +7.3268152e+04 </wgt>
<wgt id='1301'> +7.3259514e+04 </wgt>
<wgt id='1302'> +7.3250174e+04 </wgt>
<wgt id='1303'> +7.3260705e+04 </wgt>
<wgt id='1304'> +7.3328028e+04 </wgt>
<wgt id='1305'> +7.3203266e+04 </wgt>
<wgt id='1306'> +7.3272541e+04 </wgt>
<wgt id='1307'> +7.3188035e+04 </wgt>
<wgt id='1308'> +7.3223259e+04 </wgt>
<wgt id='1309'> +7.3268204e+04 </wgt>
<wgt id='1310'> +7.3302195e+04 </wgt>
<wgt id='1311'> +7.3201787e+04 </wgt>
<wgt id='1312'> +7.3220879e+04 </wgt>
<wgt id='1313'> +7.3228639e+04 </wgt>
<wgt id='1314'> +7.3307818e+04 </wgt>
<wgt id='1315'> +7.3261215e+04 </wgt>
<wgt id='1316'> +7.3250449e+04 </wgt>
<wgt id='1317'> +7.3287580e+04 </wgt>
<wgt id='1318'> +7.3287712e+04 </wgt>
<wgt id='1319'> +7.3209512e+04 </wgt>
<wgt id='1320'> +7.3272577e+04 </wgt>
<wgt id='1321'> +7.3280337e+04 </wgt>
<wgt id='1322'> +7.3218331e+04 </wgt>
<wgt id='1323'> +7.3237076e+04 </wgt>
<wgt id='1324'> +7.2468480e+04 </wgt>
<wgt id='1325'> +7.4075145e+04 </wgt>
<wgt id='1326'> +7.3190338e+04 </wgt>
<wgt id='1327'> +7.0932113e+04 </wgt>
<wgt id='1328'> +7.4218108e+04 </wgt>
<wgt id='1329'> +7.3918345e+04 </wgt>
<wgt id='1330'> +7.4263094e+04 </wgt>
<wgt id='1331'> +7.4385143e+04 </wgt>
<wgt id='1332'> +7.4400012e+04 </wgt>
<wgt id='1333'> +7.4675838e+04 </wgt>
<wgt id='1334'> +7.2560473e+04 </wgt>
<wgt id='1335'> +7.3421309e+04 </wgt>
<wgt id='1336'> +7.4592471e+04 </wgt>
<wgt id='1337'> +7.4204894e+04 </wgt>
<wgt id='1338'> +7.4578143e+04 </wgt>
<wgt id='1339'> +7.4544236e+04 </wgt>
<wgt id='1340'> +7.3925605e+04 </wgt>
<wgt id='1341'> +7.3282793e+04 </wgt>
<wgt id='1342'> +7.4542459e+04 </wgt>
<wgt id='1343'> +7.4428421e+04 </wgt>
<wgt id='1344'> +7.3091411e+04 </wgt>
<wgt id='1345'> +7.5516673e+04 </wgt>
<wgt id='1346'> +7.4224087e+04 </wgt>
<wgt id='1347'> +7.4953302e+04 </wgt>
<wgt id='1348'> +7.3028857e+04 </wgt>
<wgt id='1349'> +7.4202573e+04 </wgt>
<wgt id='1350'> +7.3186891e+04 </wgt>
<wgt id='1351'> +7.3615471e+04 </wgt>
<wgt id='1352'> +7.4108000e+04 </wgt>
<wgt id='1353'> +7.4408183e+04 </wgt>
<wgt id='1354'> +7.4835590e+04 </wgt>
<wgt id='1355'> +7.4616717e+04 </wgt>
<wgt id='1356'> +7.4273749e+04 </wgt>
<wgt id='1357'> +7.3901582e+04 </wgt>
<wgt id='1358'> +7.4028810e+04 </wgt>
<wgt id='1359'> +7.4988118e+04 </wgt>
<wgt id='1360'> +7.3940777e+04 </wgt>
<wgt id='1361'> +7.5639269e+04 </wgt>
<wgt id='1362'> +7.4924544e+04 </wgt>
<wgt id='1363'> +7.3750961e+04 </wgt>
<wgt id='1364'> +7.4141533e+04 </wgt>
<wgt id='1365'> +7.3565284e+04 </wgt>
<wgt id='1366'> +7.4153234e+04 </wgt>
<wgt id='1367'> +7.4655969e+04 </wgt>
<wgt id='1368'> +7.4920332e+04 </wgt>
<wgt id='1369'> +7.2921114e+04 </wgt>
<wgt id='1370'> +7.4274147e+04 </wgt>
<wgt id='1371'> +7.3947729e+04 </wgt>
<wgt id='1372'> +7.4789049e+04 </wgt>
<wgt id='1373'> +7.4132747e+04 </wgt>
<wgt id='1374'> +7.4883898e+04 </wgt>
<wgt id='1375'> +7.4666392e+04 </wgt>
<wgt id='1376'> +7.4211724e+04 </wgt>
<wgt id='1377'> +7.4372299e+04 </wgt>
<wgt id='1378'> +7.3455794e+04 </wgt>
<wgt id='1379'> +7.5226027e+04 </wgt>
<wgt id='1380'> +7.3312169e+04 </wgt>
<wgt id='1381'> +7.3631734e+04 </wgt>
<wgt id='1382'> +7.3668285e+04 </wgt>
<wgt id='1383'> +7.4506275e+04 </wgt>
<wgt id='1384'> +7.4115952e+04 </wgt>
<wgt id='1385'> +7.3019079e+04 </wgt>
<wgt id='1386'> +7.4674183e+04 </wgt>
<wgt id='1387'> +7.3619602e+04 </wgt>
<wgt id='1388'> +7.4737623e+04 </wgt>
<wgt id='1389'> +7.3954246e+04 </wgt>
<wgt id='1390'> +7.2723219e+04 </wgt>
<wgt id='1391'> +7.4288376e+04 </wgt>
<wgt id='1392'> +7.4091618e+04 </wgt>
<wgt id='1393'> +7.3286959e+04 </wgt>
<wgt id='1394'> +7.3565284e+04 </wgt>
<wgt id='1395'> +7.4439072e+04 </wgt>
<wgt id='1396'> +7.2939252e+04 </wgt>
<wgt id='1397'> +7.4453659e+04 </wgt>
<wgt id='1398'> +7.5066664e+04 </wgt>
<wgt id='1399'> +7.4715018e+04 </wgt>
<wgt id='1400'> +7.5411951e+04 </wgt>
<wgt id='1401'> +7.4568117e+04 </wgt>
<wgt id='1402'> +7.4627687e+04 </wgt>
<wgt id='1403'> +7.4245629e+04 </wgt>
<wgt id='1404'> +7.5278703e+04 </wgt>
<wgt id='1405'> +7.2849474e+04 </wgt>
<wgt id='1406'> +7.3846892e+04 </wgt>
<wgt id='1407'> +7.4222222e+04 </wgt>
<wgt id='1408'> +7.5181816e+04 </wgt>
<wgt id='1409'> +7.3560290e+04 </wgt>
<wgt id='1410'> +7.4488052e+04 </wgt>
<wgt id='1411'> +7.4805910e+04 </wgt>
<wgt id='1412'> +7.5323868e+04 </wgt>
<wgt id='1413'> +7.4713989e+04 </wgt>
<wgt id='1414'> +7.4606756e+04 </wgt>
<wgt id='1415'> +7.2963051e+04 </wgt>
<wgt id='1416'> +7.4675290e+04 </wgt>
<wgt id='1417'> +7.3614641e+04 </wgt>
<wgt id='1418'> +7.5668032e+04 </wgt>
<wgt id='1419'> +7.4635644e+04 </wgt>
<wgt id='1420'> +7.3573317e+04 </wgt>
<wgt id='1421'> +7.3896330e+04 </wgt>
<wgt id='1422'> +7.3907851e+04 </wgt>
<wgt id='1423'> +7.4880028e+04 </wgt>
<wgt id='1424'> +7.4048296e+04 </wgt>
<wgt id='1425'> +7.3041308e+04 </wgt>
<wgt id='1426'> +7.4815279e+04 </wgt>
<wgt id='1427'> +7.5037399e+04 </wgt>
<wgt id='1428'> +7.5162956e+04 </wgt>
<wgt id='1429'> +7.3992156e+04 </wgt>
<wgt id='1430'> +7.4421815e+04 </wgt>
<wgt id='1431'> +7.4190570e+04 </wgt>
<wgt id='1432'> +7.4610018e+04 </wgt>
<wgt id='1433'> +7.4186135e+04 </wgt>
<wgt id='1434'> +7.4062346e+04 </wgt>
<wgt id='1435'> +7.4067148e+04 </wgt>
<wgt id='1436'> +7.4087322e+04 </wgt>
<wgt id='1437'> +7.4318481e+04 </wgt>
<wgt id='1438'> +7.4317033e+04 </wgt>
<wgt id='1439'> +7.4042746e+04 </wgt>
<wgt id='1440'> +7.4180627e+04 </wgt>
<wgt id='1441'> +7.4130962e+04 </wgt>
<wgt id='1442'> +7.4279078e+04 </wgt>
<wgt id='1443'> +7.4200071e+04 </wgt>
<wgt id='1444'> +7.4035825e+04 </wgt>
<wgt id='1445'> +7.4173365e+04 </wgt>
<wgt id='1446'> +7.4170335e+04 </wgt>
<wgt id='1447'> +7.3994398e+04 </wgt>
<wgt id='1448'> +7.4335620e+04 </wgt>
<wgt id='1449'> +7.4150429e+04 </wgt>
<wgt id='1450'> +7.3930798e+04 </wgt>
<wgt id='1451'> +7.4150136e+04 </wgt>
<wgt id='1452'> +7.4128165e+04 </wgt>
<wgt id='1453'> +7.4210879e+04 </wgt>
<wgt id='1454'> +7.4181883e+04 </wgt>
<wgt id='1455'> +7.4151888e+04 </wgt>
<wgt id='1456'> +7.4188227e+04 </wgt>
<wgt id='1457'> +7.4283025e+04 </wgt>
<wgt id='1458'> +7.4203220e+04 </wgt>
<wgt id='1459'> +7.4175734e+04 </wgt>
<wgt id='1460'> +7.4087230e+04 </wgt>
<wgt id='1461'> +7.4123458e+04 </wgt>
<wgt id='1462'> +7.4152639e+04 </wgt>
<wgt id='1463'> +7.4158120e+04 </wgt>
<wgt id='1464'> +7.4137947e+04 </wgt>
<wgt id='1465'> +7.4178772e+04 </wgt>
<wgt id='1466'> +7.4194805e+04 </wgt>
<wgt id='1467'> +7.4186376e+04 </wgt>
<wgt id='1468'> +7.4222997e+04 </wgt>
<wgt id='1469'> +7.4159869e+04 </wgt>
<wgt id='1470'> +7.4244857e+04 </wgt>
<wgt id='1471'> +7.4217285e+04 </wgt>
<wgt id='1472'> +7.4201351e+04 </wgt>
<wgt id='1473'> +7.4179339e+04 </wgt>
<wgt id='1474'> +7.4190417e+04 </wgt>
<wgt id='1475'> +7.4169022e+04 </wgt>
<wgt id='1476'> +7.4222076e+04 </wgt>
<wgt id='1477'> +7.4177713e+04 </wgt>
<wgt id='1478'> +7.4193349e+04 </wgt>
<wgt id='1479'> +7.4127713e+04 </wgt>
<wgt id='1480'> +7.4228655e+04 </wgt>
<wgt id='1481'> +7.4172173e+04 </wgt>
<wgt id='1482'> +7.3992156e+04 </wgt>
<wgt id='1483'> +7.4421815e+04 </wgt>
<wgt id='1484'> +7.6464603e+04 </wgt>
<wgt id='1485'> +7.6562226e+04 </wgt>
<wgt id='1486'> +7.6618960e+04 </wgt>
<wgt id='1487'> +7.5144917e+04 </wgt>
<wgt id='1488'> +7.6067294e+04 </wgt>
<wgt id='1489'> +7.6561074e+04 </wgt>
<wgt id='1490'> +7.5031085e+04 </wgt>
<wgt id='1491'> +7.6514152e+04 </wgt>
<wgt id='1492'> +7.4936206e+04 </wgt>
<wgt id='1493'> +7.6474094e+04 </wgt>
<wgt id='1494'> +7.5925127e+04 </wgt>
<wgt id='1495'> +7.5160618e+04 </wgt>
<wgt id='1496'> +7.5995019e+04 </wgt>
<wgt id='1497'> +7.6043108e+04 </wgt>
<wgt id='1498'> +7.7298798e+04 </wgt>
<wgt id='1499'> +7.6669373e+04 </wgt>
<wgt id='1500'> +7.5544953e+04 </wgt>
<wgt id='1501'> +7.5923225e+04 </wgt>
<wgt id='1502'> +7.7278843e+04 </wgt>
<wgt id='1503'> +7.5880234e+04 </wgt>
<wgt id='1504'> +7.6654688e+04 </wgt>
<wgt id='1505'> +7.6482976e+04 </wgt>
<wgt id='1506'> +7.6136334e+04 </wgt>
<wgt id='1507'> +7.5779974e+04 </wgt>
<wgt id='1508'> +7.4997312e+04 </wgt>
<wgt id='1509'> +7.6453498e+04 </wgt>
<wgt id='1510'> +7.6802655e+04 </wgt>
<wgt id='1511'> +7.5697919e+04 </wgt>
<wgt id='1512'> +7.5862485e+04 </wgt>
<wgt id='1513'> +7.6020292e+04 </wgt>
<wgt id='1514'> +7.6592955e+04 </wgt>
<wgt id='1515'> +7.6001586e+04 </wgt>
<wgt id='1516'> +7.4951428e+04 </wgt>
<wgt id='1517'> +7.6744196e+04 </wgt>
<wgt id='1518'> +7.6465911e+04 </wgt>
<wgt id='1519'> +7.6753488e+04 </wgt>
<wgt id='1520'> +7.6375271e+04 </wgt>
<wgt id='1521'> +7.4974855e+04 </wgt>
<wgt id='1522'> +7.7236440e+04 </wgt>
<wgt id='1523'> +7.7005531e+04 </wgt>
<wgt id='1524'> +7.6462830e+04 </wgt>
<wgt id='1525'> +7.6639770e+04 </wgt>
<wgt id='1526'> +7.6346546e+04 </wgt>
<wgt id='1527'> +7.6691517e+04 </wgt>
<wgt id='1528'> +7.6962715e+04 </wgt>
<wgt id='1529'> +7.7137349e+04 </wgt>
<wgt id='1530'> +7.6386707e+04 </wgt>
<wgt id='1531'> +7.6190189e+04 </wgt>
<wgt id='1532'> +7.5418748e+04 </wgt>
<wgt id='1533'> +7.7159145e+04 </wgt>
<wgt id='1534'> +7.7009338e+04 </wgt>
<wgt id='1535'> +7.6036895e+04 </wgt>
<wgt id='1536'> +7.6807809e+04 </wgt>
<wgt id='1537'> +7.6516065e+04 </wgt>
<wgt id='1538'> +7.8240683e+04 </wgt>
<wgt id='1539'> +7.6795999e+04 </wgt>
<wgt id='1540'> +7.6868982e+04 </wgt>
<wgt id='1541'> +7.6921748e+04 </wgt>
<wgt id='1542'> +7.7355250e+04 </wgt>
<wgt id='1543'> +7.6815972e+04 </wgt>
<wgt id='1544'> +7.7467637e+04 </wgt>
<wgt id='1545'> +7.6595309e+04 </wgt>
<wgt id='1546'> +7.6247892e+04 </wgt>
<wgt id='1547'> +7.7111925e+04 </wgt>
<wgt id='1548'> +7.5816597e+04 </wgt>
<wgt id='1549'> +7.7449577e+04 </wgt>
<wgt id='1550'> +7.7363408e+04 </wgt>
<wgt id='1551'> +7.7963181e+04 </wgt>
<wgt id='1552'> +7.6122820e+04 </wgt>
<wgt id='1553'> +7.8036421e+04 </wgt>
<wgt id='1554'> +7.4972576e+04 </wgt>
<wgt id='1555'> +7.6757249e+04 </wgt>
<wgt id='1556'> +7.6657314e+04 </wgt>
<wgt id='1557'> +7.6112129e+04 </wgt>
<wgt id='1558'> +7.7187479e+04 </wgt>
<wgt id='1559'> +7.7169971e+04 </wgt>
<wgt id='1560'> +7.6400937e+04 </wgt>
<wgt id='1561'> +7.6831171e+04 </wgt>
<wgt id='1562'> +7.6948430e+04 </wgt>
<wgt id='1563'> +7.6673986e+04 </wgt>
<wgt id='1564'> +7.5784074e+04 </wgt>
<wgt id='1565'> +7.5521637e+04 </wgt>
<wgt id='1566'> +7.6801953e+04 </wgt>
<wgt id='1567'> +7.7737045e+04 </wgt>
<wgt id='1568'> +7.6376781e+04 </wgt>
<wgt id='1569'> +7.7237947e+04 </wgt>
<wgt id='1570'> +7.7127261e+04 </wgt>
<wgt id='1571'> +7.7572050e+04 </wgt>
<wgt id='1572'> +7.5732035e+04 </wgt>
<wgt id='1573'> +7.6713869e+04 </wgt>
<wgt id='1574'> +7.5634207e+04 </wgt>
<wgt id='1575'> +7.5583565e+04 </wgt>
<wgt id='1576'> +7.7239752e+04 </wgt>
<wgt id='1577'> +7.5255385e+04 </wgt>
<wgt id='1578'> +7.6507571e+04 </wgt>
<wgt id='1579'> +7.6451759e+04 </wgt>
<wgt id='1580'> +7.7640881e+04 </wgt>
<wgt id='1581'> +7.7379544e+04 </wgt>
<wgt id='1582'> +7.6681288e+04 </wgt>
<wgt id='1583'> +7.5739648e+04 </wgt>
<wgt id='1584'> +7.5488791e+04 </wgt>
<wgt id='1585'> +7.4105404e+04 </wgt>
<wgt id='1586'> +6.6021965e+04 </wgt>
<wgt id='1587'> +7.3598091e+04 </wgt>
<wgt id='1588'> +7.3992156e+04 </wgt>
<wgt id='1589'> +7.4060758e+04 </wgt>
<wgt id='1590'> +7.4149166e+04 </wgt>
<wgt id='1591'> +7.4421815e+04 </wgt>
<wgt id='1592'> +7.4518704e+04 </wgt>
<wgt id='1593'> +7.5232157e+04 </wgt>
<wgt id='1594'> +7.5945655e+04 </wgt>
<wgt id='1595'> +7.5519925e+04 </wgt>
<wgt id='1596'> +7.5024045e+04 </wgt>
<wgt id='1597'> +7.5574359e+04 </wgt>
<wgt id='1598'> +7.4815881e+04 </wgt>
<wgt id='1599'> +7.5743748e+04 </wgt>
<wgt id='1600'> +7.4138744e+04 </wgt>
<wgt id='1601'> +7.6221335e+04 </wgt>
<wgt id='1602'> +7.4766891e+04 </wgt>
<wgt id='1603'> +7.5773835e+04 </wgt>
<wgt id='1604'> +7.5764395e+04 </wgt>
<wgt id='1605'> +7.5035749e+04 </wgt>
<wgt id='1606'> +7.4499720e+04 </wgt>
<wgt id='1607'> +7.5652506e+04 </wgt>
<wgt id='1608'> +7.4120100e+04 </wgt>
<wgt id='1609'> +7.5851915e+04 </wgt>
<wgt id='1610'> +7.5366735e+04 </wgt>
<wgt id='1611'> +7.4884926e+04 </wgt>
<wgt id='1612'> +7.5714519e+04 </wgt>
<wgt id='1613'> +7.3949546e+04 </wgt>
<wgt id='1614'> +7.4844517e+04 </wgt>
<wgt id='1615'> +7.5895116e+04 </wgt>
<wgt id='1616'> +7.4495781e+04 </wgt>
<wgt id='1617'> +7.5678476e+04 </wgt>
<wgt id='1618'> +7.5402718e+04 </wgt>
<wgt id='1619'> +7.4843637e+04 </wgt>
<wgt id='1620'> +7.5526436e+04 </wgt>
<wgt id='1621'> +7.5005847e+04 </wgt>
<wgt id='1622'> +7.5473218e+04 </wgt>
<wgt id='1623'> +7.4720838e+04 </wgt>
<wgt id='1624'> +7.5503902e+04 </wgt>
<wgt id='1625'> +7.4027969e+04 </wgt>
<wgt id='1626'> +7.4529873e+04 </wgt>
<wgt id='1627'> +7.5717072e+04 </wgt>
<wgt id='1628'> +7.5816487e+04 </wgt>
<wgt id='1629'> +7.5116425e+04 </wgt>
<wgt id='1630'> +7.5036334e+04 </wgt>
<wgt id='1631'> +7.5005161e+04 </wgt>
<wgt id='1632'> +7.4858882e+04 </wgt>
<wgt id='1633'> +7.5464163e+04 </wgt>
<wgt id='1634'> +7.6100008e+04 </wgt>
<wgt id='1635'> +7.4416920e+04 </wgt>
<wgt id='1636'> +7.4843640e+04 </wgt>
<wgt id='1637'> +7.5966822e+04 </wgt>
<wgt id='1638'> +7.4980033e+04 </wgt>
<wgt id='1639'> +7.5278586e+04 </wgt>
<wgt id='1640'> +7.6475499e+04 </wgt>
<wgt id='1641'> +7.4288260e+04 </wgt>
<wgt id='1642'> +7.4538020e+04 </wgt>
<wgt id='1643'> +7.5916463e+04 </wgt>
<wgt id='1644'> +7.6032585e+04 </wgt>
<wgt id='1645'> +7.4049370e+04 </wgt>
<wgt id='1646'> +7.5243239e+04 </wgt>
<wgt id='1647'> +7.5652222e+04 </wgt>
<wgt id='1648'> +7.5790247e+04 </wgt>
<wgt id='1649'> +7.5396270e+04 </wgt>
<wgt id='1650'> +7.6187735e+04 </wgt>
<wgt id='1651'> +7.4069903e+04 </wgt>
<wgt id='1652'> +7.4715559e+04 </wgt>
<wgt id='1653'> +7.4972775e+04 </wgt>
<wgt id='1654'> +7.5497892e+04 </wgt>
<wgt id='1655'> +7.5774401e+04 </wgt>
<wgt id='1656'> +7.5950664e+04 </wgt>
<wgt id='1657'> +7.6370375e+04 </wgt>
<wgt id='1658'> +7.6286761e+04 </wgt>
<wgt id='1659'> +7.6106415e+04 </wgt>
<wgt id='1660'> +7.6064076e+04 </wgt>
<wgt id='1661'> +7.6596475e+04 </wgt>
<wgt id='1662'> +7.5114886e+04 </wgt>
<wgt id='1663'> +7.5550817e+04 </wgt>
<wgt id='1664'> +7.5706658e+04 </wgt>
<wgt id='1665'> +7.5401936e+04 </wgt>
<wgt id='1666'> +7.5981997e+04 </wgt>
<wgt id='1667'> +7.5458172e+04 </wgt>
<wgt id='1668'> +7.6346729e+04 </wgt>
<wgt id='1669'> +7.6356208e+04 </wgt>
<wgt id='1670'> +7.5221792e+04 </wgt>
<wgt id='1671'> +7.5954114e+04 </wgt>
<wgt id='1672'> +7.6260068e+04 </wgt>
<wgt id='1673'> +7.6818915e+04 </wgt>
<wgt id='1674'> +7.5415056e+04 </wgt>
<wgt id='1675'> +7.6538067e+04 </wgt>
<wgt id='1676'> +7.5504185e+04 </wgt>
<wgt id='1677'> +7.5384630e+04 </wgt>
<wgt id='1678'> +7.6632961e+04 </wgt>
<wgt id='1679'> +7.6010363e+04 </wgt>
<wgt id='1680'> +7.6500588e+04 </wgt>
<wgt id='1681'> +7.6092921e+04 </wgt>
<wgt id='1682'> +7.5432973e+04 </wgt>
<wgt id='1683'> +7.5782924e+04 </wgt>
<wgt id='1684'> +7.6104852e+04 </wgt>
<wgt id='1685'> +7.6812780e+04 </wgt>
<wgt id='1686'> +7.5013661e+04 </wgt>
<wgt id='1687'> +7.6769437e+04 </wgt>
<wgt id='1688'> +7.4755153e+04 </wgt>
<wgt id='1689'> +7.5383731e+04 </wgt>
<wgt id='1690'> +7.6863462e+04 </wgt>
<wgt id='1691'> +7.6168569e+04 </wgt>
<wgt id='1692'> +7.5855202e+04 </wgt>
<wgt id='1693'> +7.6560416e+04 </wgt>
<wgt id='1694'> +7.5772100e+04 </wgt>
<wgt id='1695'> +7.5912088e+04 </wgt>
<wgt id='1696'> +7.6064755e+04 </wgt>
<wgt id='1697'> +7.6143314e+04 </wgt>
<wgt id='1698'> +7.6016787e+04 </wgt>
<wgt id='1699'> +7.5320336e+04 </wgt>
<wgt id='1700'> +7.6726012e+04 </wgt>
<wgt id='1701'> +7.5492528e+04 </wgt>
<wgt id='1702'> +7.6591964e+04 </wgt>
<wgt id='1703'> +7.6020092e+04 </wgt>
<wgt id='1704'> +7.6290133e+04 </wgt>
<wgt id='1705'> +7.6001016e+04 </wgt>
<wgt id='1706'> +7.5943405e+04 </wgt>
<wgt id='1707'> +7.4736908e+04 </wgt>
<wgt id='1708'> +7.6826580e+04 </wgt>
<wgt id='1709'> +7.5629224e+04 </wgt>
<wgt id='1710'> +7.6445248e+04 </wgt>
<wgt id='1711'> +7.5696716e+04 </wgt>
<wgt id='1712'> +7.6167409e+04 </wgt>
<wgt id='1713'> +7.6613242e+04 </wgt>
<wgt id='1714'> +7.4951093e+04 </wgt>
<wgt id='1715'> +7.4394215e+04 </wgt>
<wgt id='1716'> +7.5857703e+04 </wgt>
<wgt id='1717'> +7.3192785e+04 </wgt>
<wgt id='1718'> +7.3302151e+04 </wgt>
<wgt id='1719'> +7.3052389e+04 </wgt>
<wgt id='1720'> +7.3207006e+04 </wgt>
<wgt id='1721'> +7.3179796e+04 </wgt>
<wgt id='1722'> +7.3179072e+04 </wgt>
<wgt id='1723'> +7.3215167e+04 </wgt>
<wgt id='1724'> +7.3345088e+04 </wgt>
<wgt id='1725'> +7.3068858e+04 </wgt>
<wgt id='1726'> +7.3085883e+04 </wgt>
<wgt id='1727'> +7.3303042e+04 </wgt>
<wgt id='1728'> +7.2782039e+04 </wgt>
<wgt id='1729'> +7.3591677e+04 </wgt>
<wgt id='1730'> +7.3202069e+04 </wgt>
<wgt id='1731'> +7.3185599e+04 </wgt>
<wgt id='1732'> +7.3587646e+04 </wgt>
<wgt id='1733'> +7.3587646e+04 </wgt>
<wgt id='1734'> +7.3078763e+04 </wgt>
<wgt id='1735'> +7.3266266e+04 </wgt>
<wgt id='1736'> +7.3001748e+04 </wgt>
<wgt id='1737'> +7.3454302e+04 </wgt>
<wgt id='1738'> +7.3418440e+04 </wgt>
<wgt id='1739'> +7.2776547e+04 </wgt>
<wgt id='1740'> +7.3090848e+04 </wgt>
<wgt id='1741'> +7.3435303e+04 </wgt>
<wgt id='1742'> +7.3347222e+04 </wgt>
<wgt id='1743'> +7.3009027e+04 </wgt>
<wgt id='1744'> +7.3119182e+04 </wgt>
<wgt id='1745'> +7.3391554e+04 </wgt>
<wgt id='1746'> +7.2676471e+04 </wgt>
<wgt id='1747'> +7.3462796e+04 </wgt>
<wgt id='1748'> +7.3329335e+04 </wgt>
<wgt id='1749'> +7.2695410e+04 </wgt>
<wgt id='1750'> +7.3130177e+04 </wgt>
<wgt id='1751'> +7.3259306e+04 </wgt>
<wgt id='1752'> +7.3230328e+04 </wgt>
<wgt id='1753'> +7.3136914e+04 </wgt>
<wgt id='1754'> +7.3211290e+04 </wgt>
<wgt id='1755'> +7.3173570e+04 </wgt>
<wgt id='1756'> +7.2834970e+04 </wgt>
<wgt id='1757'> +7.4089200e+04 </wgt>
<wgt id='1758'> +7.3460032e+04 </wgt>
<wgt id='1759'> +7.2744508e+04 </wgt>
<wgt id='1760'> +7.3501197e+04 </wgt>
<wgt id='1761'> +7.2936276e+04 </wgt>
<wgt id='1762'> +7.3137225e+04 </wgt>
<wgt id='1763'> +7.3318254e+04 </wgt>
<wgt id='1764'> +7.3095237e+04 </wgt>
<wgt id='1765'> +7.3611811e+04 </wgt>
<wgt id='1766'> +7.3173178e+04 </wgt>
<wgt id='1767'> +7.3288944e+04 </wgt>
<wgt id='1768'> +7.3232010e+04 </wgt>
<wgt id='1769'> +7.3183081e+04 </wgt>
<wgt id='1770'> +7.2945760e+04 </wgt>
<wgt id='1771'> +7.3535185e+04 </wgt>
<wgt id='1772'> +7.3288522e+04 </wgt>
<wgt id='1773'> +7.2976065e+04 </wgt>
<wgt id='1774'> +7.2994862e+04 </wgt>
<wgt id='1775'> +7.3306783e+04 </wgt>
<wgt id='1776'> +7.3417669e+04 </wgt>
<wgt id='1777'> +7.3094292e+04 </wgt>
<wgt id='1778'> +7.3257161e+04 </wgt>
<wgt id='1779'> +7.3211099e+04 </wgt>
<wgt id='1780'> +7.3480730e+04 </wgt>
<wgt id='1781'> +7.3330745e+04 </wgt>
<wgt id='1782'> +7.3192785e+04 </wgt>
<wgt id='1783'> +7.3192702e+04 </wgt>
<wgt id='1784'> +7.3972854e+04 </wgt>
<wgt id='1785'> +7.3823056e+04 </wgt>
<wgt id='1786'> +7.3035451e+04 </wgt>
<wgt id='1787'> +7.3966126e+04 </wgt>
<wgt id='1788'> +7.3974760e+04 </wgt>
<wgt id='1789'> +7.4027097e+04 </wgt>
<wgt id='1790'> +7.3659913e+04 </wgt>
<wgt id='1791'> +7.3957646e+04 </wgt>
<wgt id='1792'> +7.3571426e+04 </wgt>
<wgt id='1793'> +7.4132577e+04 </wgt>
<wgt id='1794'> +7.4215759e+04 </wgt>
<wgt id='1795'> +7.3338260e+04 </wgt>
<wgt id='1796'> +7.4030014e+04 </wgt>
<wgt id='1797'> +7.3977856e+04 </wgt>
<wgt id='1798'> +7.3901189e+04 </wgt>
<wgt id='1799'> +7.4389010e+04 </wgt>
<wgt id='1800'> +7.4326055e+04 </wgt>
<wgt id='1801'> +7.4405669e+04 </wgt>
<wgt id='1802'> +7.4359598e+04 </wgt>
<wgt id='1803'> +7.4061237e+04 </wgt>
<wgt id='1804'> +7.3495890e+04 </wgt>
<wgt id='1805'> +7.3917094e+04 </wgt>
<wgt id='1806'> +7.3803343e+04 </wgt>
<wgt id='1807'> +7.3995286e+04 </wgt>
<wgt id='1808'> +7.3994772e+04 </wgt>
<wgt id='1809'> +7.3459295e+04 </wgt>
<wgt id='1810'> +7.3911523e+04 </wgt>
<wgt id='1811'> +7.3833323e+04 </wgt>
<wgt id='1812'> +7.3997582e+04 </wgt>
<wgt id='1813'> +7.3988843e+04 </wgt>
<wgt id='1814'> +7.3903261e+04 </wgt>
<wgt id='1815'> +7.3914907e+04 </wgt>
<wgt id='1816'> +7.3944072e+04 </wgt>
<wgt id='1817'> +7.3622224e+04 </wgt>
<wgt id='1818'> +7.3985454e+04 </wgt>
<wgt id='1819'> +7.3804730e+04 </wgt>
<wgt id='1820'> +7.3986434e+04 </wgt>
<wgt id='1821'> +7.3827890e+04 </wgt>
<wgt id='1822'> +7.3775597e+04 </wgt>
<wgt id='1823'> +7.3965662e+04 </wgt>
<wgt id='1824'> +7.4050291e+04 </wgt>
<wgt id='1825'> +7.3620075e+04 </wgt>
<wgt id='1826'> +7.4551324e+04 </wgt>
<wgt id='1827'> +8.1704342e+04 </wgt>
<wgt id='1828'> +8.1830472e+04 </wgt>
<wgt id='1829'> +8.1611912e+04 </wgt>
<wgt id='1830'> +8.1812175e+04 </wgt>
<wgt id='1831'> +8.1629202e+04 </wgt>
<wgt id='1832'> +8.1676343e+04 </wgt>
<wgt id='1833'> +8.1764631e+04 </wgt>
<wgt id='1834'> +8.1395062e+04 </wgt>
<wgt id='1835'> +8.2032615e+04 </wgt>
<wgt id='1836'> +8.1996984e+04 </wgt>
<wgt id='1837'> +8.1431024e+04 </wgt>
<wgt id='1838'> +8.1893287e+04 </wgt>
<wgt id='1839'> +8.1545662e+04 </wgt>
<wgt id='1840'> +8.1387201e+04 </wgt>
<wgt id='1841'> +8.2063704e+04 </wgt>
<wgt id='1842'> +8.1735286e+04 </wgt>
<wgt id='1843'> +8.2008238e+04 </wgt>
<wgt id='1844'> +8.1870585e+04 </wgt>
<wgt id='1845'> +8.1554225e+04 </wgt>
<wgt id='1846'> +8.1796365e+04 </wgt>
<wgt id='1847'> +8.1635499e+04 </wgt>
<wgt id='1848'> +8.1135223e+04 </wgt>
<wgt id='1849'> +8.2236331e+04 </wgt>
<wgt id='1850'> +8.2052442e+04 </wgt>
<wgt id='1851'> +8.1395468e+04 </wgt>
<wgt id='1852'> +8.1401807e+04 </wgt>
<wgt id='1853'> +8.1849186e+04 </wgt>
<wgt id='1854'> +8.1452990e+04 </wgt>
<wgt id='1855'> +8.1811875e+04 </wgt>
<wgt id='1856'> +7.3294245e+04 </wgt>
<wgt id='1857'> +7.3283616e+04 </wgt>
<wgt id='1858'> +7.3293422e+04 </wgt>
<wgt id='1859'> +7.3285108e+04 </wgt>
<wgt id='1860'> +7.3295050e+04 </wgt>
<wgt id='1861'> +7.3319210e+04 </wgt>
<wgt id='1862'> +7.3086408e+04 </wgt>
<wgt id='1863'> +7.3266734e+04 </wgt>
<wgt id='1864'> +7.3154875e+04 </wgt>
<wgt id='1865'> +7.3152885e+04 </wgt>
<wgt id='1866'> +7.3517249e+04 </wgt>
<wgt id='1867'> +7.3203611e+04 </wgt>
<wgt id='1868'> +7.3242990e+04 </wgt>
<wgt id='1869'> +7.3335780e+04 </wgt>
<wgt id='1870'> +7.3225045e+04 </wgt>
<wgt id='1871'> +7.3319080e+04 </wgt>
<wgt id='1872'> +7.3336993e+04 </wgt>
<wgt id='1873'> +7.3260046e+04 </wgt>
<wgt id='1874'> +7.3351428e+04 </wgt>
<wgt id='1875'> +7.3347823e+04 </wgt>
<wgt id='1876'> +7.3004826e+04 </wgt>
<wgt id='1877'> +7.3195375e+04 </wgt>
<wgt id='1878'> +7.3132196e+04 </wgt>
<wgt id='1879'> +7.3491738e+04 </wgt>
<wgt id='1880'> +7.3482556e+04 </wgt>
<wgt id='1881'> +7.3484728e+04 </wgt>
<wgt id='1882'> +7.3253896e+04 </wgt>
<wgt id='1883'> +7.3302680e+04 </wgt>
<wgt id='1884'> +7.3120421e+04 </wgt>
<wgt id='1885'> +7.2707118e+04 </wgt>
<wgt id='1886'> +6.8050901e+04 </wgt>
<wgt id='1887'> +7.0850521e+04 </wgt>
<wgt id='1888'> +6.5234120e+04 </wgt>
<wgt id='1889'> +7.3253323e+04 </wgt>
</rwgt>
</event>
<event npLO=" -1 " npNLO=" 0 ">
 6      1 -7.4519530e+04 3.00000000e+01 7.55820760e-03 1.20699690e-01
       -2 -1    0    0    0  502 +0.0000000000e+00 +0.0000000000e+00 +1.3548556436e+00 1.3548556436e+00 0.0000000000e+00 0.0000e+00 1.0000e+00
        1 -1    0    0  501    0 +0.0000000000e+00 +0.0000000000e+00 -2.4572323064e+03 2.4572323064e+03 0.0000000000e+00 0.0000e+00 -1.0000e+00
      -24  2    1    2    0    0 +8.1654633405e+00 +2.2381907579e-01 -2.4334083723e+03 2.4346793313e+03 7.8233079674e+01 0.0000e+00 0.0000e+00
       11  1    3    3    0    0 -2.0897024056e+01 -9.9454070812e+00 -2.0175222035e+03 2.0176549354e+03 0.0000000000e+00 0.0000e+00 -1.0000e+00
      -12  1    3    3    0    0 +2.9062487397e+01 +1.0169226157e+01 -4.1588616884e+02 4.1702439588e+02 0.0000000000e+00 0.0000e+00 1.0000e+00
       21  1    1    2  501  502 -8.1654633405e+00 -2.2381907579e-01 -2.2469078465e+01 2.3907830801e+01 0.0000000000e+00 0.0000e+00 1.0000e+00
#aMCatNLO 2  0  0  1  2 0.82408005E+01 0.00000000E+00 -9  5  0 0.00000000E+00 0.00000000E+00 0.00000000E+00 0.00000000E+00 0.00000000E+00
<rwgt>
<wgt id='1001'> -7.4519530e+04 </wgt>
<wgt id='1002'> -6.7317585e+04 </wgt>
<wgt id='1003'> -8.3500574e+04 </wgt>
<wgt id='1004'> -7.8207364e+04 </wgt>
<wgt id='1005'> -7.0648947e+04 </wgt>
<wgt id='1006'> -8.7632787e+04 </wgt>
<wgt id='1007'> -6.9881469e+04 </wgt>
<wgt id='1008'> -6.3127716e+04 </wgt>
<wgt id='1009'> -7.8303469e+04 </wgt>
<wgt id='1010'> -7.4519530e+04 </wgt>
<wgt id='1011'> -7.4081591e+04 </wgt>
<wgt id='1012'> -7.4102633e+04 </wgt>
<wgt id='1013'> -7.4524399e+04 </wgt>
<wgt id='1014'> -7.3704443e+04 </wgt>
<wgt id='1015'> -7.4492575e+04 </wgt>
<wgt id='1016'> -7.3974158e+04 </wgt>
<wgt id='1017'> -7.4054781e+04 </wgt>
<wgt id='1018'> -7.4216963e+04 </wgt>
<wgt id='1019'> -7.4315406e+04 </wgt>
<wgt id='1020'> -7.5087313e+04 </wgt>
<wgt id='1021'> -7.4158141e+04 </wgt>
<wgt id='1022'> -7.4702434e+04 </wgt>
<wgt id='1023'> -7.4700594e+04 </wgt>
<wgt id='1024'> -7.4129091e+04 </wgt>
<wgt id='1025'> -7.4544805e+04 </wgt>
<wgt id='1026'> -7.4789533e+04 </wgt>
<wgt id='1027'> -7.4160732e+04 </wgt>
<wgt id='1028'> -7.5477117e+04 </wgt>
<wgt id='1029'> -7.4691477e+04 </wgt>
<wgt id='1030'> -7.4611285e+04 </wgt>
<wgt id='1031'> -7.5022781e+04 </wgt>
<wgt id='1032'> -7.4594568e+04 </wgt>
<wgt id='1033'> -7.4335263e+04 </wgt>
<wgt id='1034'> -7.4804018e+04 </wgt>
<wgt id='1035'> -7.3996839e+04 </wgt>
<wgt id='1036'> -7.4501383e+04 </wgt>
<wgt id='1037'> -7.5073876e+04 </wgt>
<wgt id='1038'> -7.5422948e+04 </wgt>
<wgt id='1039'> -7.5086993e+04 </wgt>
<wgt id='1040'> -7.4200763e+04 </wgt>
<wgt id='1041'> -7.4827485e+04 </wgt>
<wgt id='1042'> -7.5166798e+04 </wgt>
<wgt id='1043'> -7.4786018e+04 </wgt>
<wgt id='1044'> -7.4579939e+04 </wgt>
<wgt id='1045'> -7.4884897e+04 </wgt>
<wgt id='1046'> -7.3967887e+04 </wgt>
<wgt id='1047'> -7.3986374e+04 </wgt>
<wgt id='1048'> -7.4428916e+04 </wgt>
<wgt id='1049'> -7.5132557e+04 </wgt>
<wgt id='1050'> -7.4886175e+04 </wgt>
<wgt id='1051'> -7.4512942e+04 </wgt>
<wgt id='1052'> -7.3364253e+04 </wgt>
<wgt id='1053'> -7.4670969e+04 </wgt>
<wgt id='1054'> -7.4031957e+04 </wgt>
<wgt id='1055'> -7.3954341e+04 </wgt>
<wgt id='1056'> -7.5060487e+04 </wgt>
<wgt id='1057'> -7.4246172e+04 </wgt>
<wgt id='1058'> -7.4288047e+04 </wgt>
<wgt id='1059'> -7.5293290e+04 </wgt>
<wgt id='1060'> -7.4273635e+04 </wgt>
<wgt id='1061'> -7.4454765e+04 </wgt>
<wgt id='1062'> -7.4324126e+04 </wgt>
<wgt id='1063'> -7.4630121e+04 </wgt>
<wgt id='1064'> -7.4645921e+04 </wgt>
<wgt id='1065'> -7.4247382e+04 </wgt>
<wgt id='1066'> -7.4534358e+04 </wgt>
<wgt id='1067'> -7.3959929e+04 </wgt>
<wgt id='1068'> -7.4920533e+04 </wgt>
<wgt id='1069'> -7.4788861e+04 </wgt>
<wgt id='1070'> -7.4277451e+04 </wgt>
<wgt id='1071'> -7.4864799e+04 </wgt>
<wgt id='1072'> -7.4320302e+04 </wgt>
<wgt id='1073'> -7.4101609e+04 </wgt>
<wgt id='1074'> -7.4378726e+04 </wgt>
<wgt id='1075'> -7.4551709e+04 </wgt>
<wgt id='1076'> -7.4921051e+04 </wgt>
<wgt id='1077'> -7.4349229e+04 </wgt>
<wgt id='1078'> -7.4658185e+04 </wgt>
<wgt id='1079'> -7.4182718e+04 </wgt>
<wgt id='1080'> -7.3930992e+04 </wgt>
<wgt id='1081'> -7.4140822e+04 </wgt>
<wgt id='1082'> -7.4425811e+04 </wgt>
<wgt id='1083'> -7.5075463e+04 </wgt>
<wgt id='1084'> -7.4777152e+04 </wgt>
<wgt id='1085'> -7.4477056e+04 </wgt>
<wgt id='1086'> -7.4267519e+04 </wgt>
<wgt id='1087'> -7.4779273e+04 </wgt>
<wgt id='1088'> -7.4463606e+04 </wgt>
<wgt id='1089'> -7.4796538e+04 </wgt>
<wgt id='1090'> -7.4271823e+04 </wgt>
<wgt id='1091'> -7.4413343e+04 </wgt>
<wgt id='1092'> -7.4266586e+04 </wgt>
<wgt id='1093'> -7.4799163e+04 </wgt>
<wgt id='1094'> -7.4750061e+04 </wgt>
<wgt id='1095'> -7.4015880e+04 </wgt>
<wgt id='1096'> -7.4367466e+04 </wgt>
<wgt id='1097'> -7.4175304e+04 </wgt>
<wgt id='1098'> -7.4604588e+04 </wgt>
<wgt id='1099'> -7.4508731e+04 </wgt>
<wgt id='1100'> -7.4676375e+04 </wgt>
<wgt id='1101'> -7.4631497e+04 </wgt>
<wgt id='1102'> -7.4508471e+04 </wgt>
<wgt id='1103'> -7.4277202e+04 </wgt>
<wgt id='1104'> -7.4576645e+04 </wgt>
<wgt id='1105'> -7.4394030e+04 </wgt>
<wgt id='1106'> -7.4517586e+04 </wgt>
<wgt id='1107'> -7.4537899e+04 </wgt>
<wgt id='1108'> -7.4610417e+04 </wgt>
<wgt id='1109'> -7.4608378e+04 </wgt>
<wgt id='1110'> -7.4519595e+04 </wgt>
<wgt id='1111'> -7.2781874e+04 </wgt>
<wgt id='1112'> -7.6820641e+04 </wgt>
<wgt id='1113'> -7.4519595e+04 </wgt>
<wgt id='1114'> -7.3218525e+04 </wgt>
<wgt id='1115'> -7.7974258e+04 </wgt>
<wgt id='1116'> -7.2501746e+04 </wgt>
<wgt id='1117'> -7.8439269e+04 </wgt>
<wgt id='1118'> -7.4762702e+04 </wgt>
<wgt id='1119'> -6.6778840e+04 </wgt>
<wgt id='1120'> -7.7753723e+04 </wgt>
<wgt id='1121'> -7.5346840e+04 </wgt>
<wgt id='1122'> -7.5925030e+04 </wgt>
<wgt id='1123'> -7.2974659e+04 </wgt>
<wgt id='1124'> -7.4242128e+04 </wgt>
<wgt id='1125'> -8.0533833e+04 </wgt>
<wgt id='1126'> -7.3048273e+04 </wgt>
<wgt id='1127'> -7.6166696e+04 </wgt>
<wgt id='1128'> -7.4833959e+04 </wgt>
<wgt id='1129'> -7.9111409e+04 </wgt>
<wgt id='1130'> -7.0640125e+04 </wgt>
<wgt id='1131'> -7.5066514e+04 </wgt>
<wgt id='1132'> -7.9673028e+04 </wgt>
<wgt id='1133'> -7.3796772e+04 </wgt>
<wgt id='1134'> -8.1990238e+04 </wgt>
<wgt id='1135'> -7.4192919e+04 </wgt>
<wgt id='1136'> -8.2356082e+04 </wgt>
<wgt id='1137'> -7.6108447e+04 </wgt>
<wgt id='1138'> -7.8799433e+04 </wgt>
<wgt id='1139'> -7.6028706e+04 </wgt>
<wgt id='1140'> -7.7275717e+04 </wgt>
<wgt id='1141'> -7.4399686e+04 </wgt>
<wgt id='1142'> -7.5556493e+04 </wgt>
<wgt id='1143'> -6.9335585e+04 </wgt>
<wgt id='1144'> -6.8097180e+04 </wgt>
<wgt id='1145'> -7.2766167e+04 </wgt>
<wgt id='1146'> -7.4725373e+04 </wgt>
<wgt id='1147'> -7.2391347e+04 </wgt>
<wgt id='1148'> -6.8578587e+04 </wgt>
<wgt id='1149'> -7.0007945e+04 </wgt>
<wgt id='1150'> -6.7960900e+04 </wgt>
<wgt id='1151'> -7.1166517e+04 </wgt>
<wgt id='1152'> -6.7938844e+04 </wgt>
<wgt id='1153'> -7.4467051e+04 </wgt>
<wgt id='1154'> -7.6402710e+04 </wgt>
<wgt id='1155'> -7.9713753e+04 </wgt>
<wgt id='1156'> -7.3808263e+04 </wgt>
<wgt id='1157'> -7.7324331e+04 </wgt>
<wgt id='1158'> -7.4849125e+04 </wgt>
<wgt id='1159'> -7.1938396e+04 </wgt>
<wgt id='1160'> -6.8130010e+04 </wgt>
<wgt id='1161'> -7.2341090e+04 </wgt>
<wgt id='1162'> -7.5519053e+04 </wgt>
<wgt id='1163'> -7.5571939e+04 </wgt>
<wgt id='1164'> -7.7220045e+04 </wgt>
<wgt id='1165'> -8.1890071e+04 </wgt>
<wgt id='1166'> -7.2558604e+04 </wgt>
<wgt id='1167'> -7.7665940e+04 </wgt>
<wgt id='1168'> -6.7840334e+04 </wgt>
<wgt id='1169'> -7.8126623e+04 </wgt>
<wgt id='1170'> -7.6529572e+04 </wgt>
<wgt id='1171'> -7.1030956e+04 </wgt>
<wgt id='1172'> -7.5473359e+04 </wgt>
<wgt id='1173'> -7.4442817e+04 </wgt>
<wgt id='1174'> -7.1098086e+04 </wgt>
<wgt id='1175'> -7.2929037e+04 </wgt>
<wgt id='1176'> -7.5503033e+04 </wgt>
<wgt id='1177'> -7.3571768e+04 </wgt>
<wgt id='1178'> -7.6765378e+04 </wgt>
<wgt id='1179'> -7.5174763e+04 </wgt>
<wgt id='1180'> -8.0665730e+04 </wgt>
<wgt id='1181'> -7.7465817e+04 </wgt>
<wgt id='1182'> -7.5933495e+04 </wgt>
<wgt id='1183'> -7.3971350e+04 </wgt>
<wgt id='1184'> -7.4125386e+04 </wgt>
<wgt id='1185'> -7.8548488e+04 </wgt>
<wgt id='1186'> -7.3776619e+04 </wgt>
<wgt id='1187'> -7.7260564e+04 </wgt>
<wgt id='1188'> -6.9070074e+04 </wgt>
<wgt id='1189'> -7.1577200e+04 </wgt>
<wgt id='1190'> -7.0460772e+04 </wgt>
<wgt id='1191'> -7.5666266e+04 </wgt>
<wgt id='1192'> -7.5760052e+04 </wgt>
<wgt id='1193'> -6.2895132e+04 </wgt>
<wgt id='1194'> -7.7007142e+04 </wgt>
<wgt id='1195'> -7.9111409e+04 </wgt>
<wgt id='1196'> -6.4748824e+04 </wgt>
<wgt id='1197'> -7.6433414e+04 </wgt>
<wgt id='1198'> -7.6013161e+04 </wgt>
<wgt id='1199'> -7.4472371e+04 </wgt>
<wgt id='1200'> -7.3125609e+04 </wgt>
<wgt id='1201'> -7.5797055e+04 </wgt>
<wgt id='1202'> -7.2210041e+04 </wgt>
<wgt id='1203'> -6.9014554e+04 </wgt>
<wgt id='1204'> -7.4442768e+04 </wgt>
<wgt id='1205'> -7.3379648e+04 </wgt>
<wgt id='1206'> -7.9680821e+04 </wgt>
<wgt id='1207'> -7.8143016e+04 </wgt>
<wgt id='1208'> -7.6409892e+04 </wgt>
<wgt id='1209'> -7.2822502e+04 </wgt>
<wgt id='1210'> -7.5742633e+04 </wgt>
<wgt id='1211'> -7.1696355e+04 </wgt>
<wgt id='1212'> -7.9316852e+04 </wgt>
<wgt id='1213'> -7.3438690e+04 </wgt>
<wgt id='1214'> -7.4553438e+04 </wgt>
<wgt id='1215'> -6.5236670e+04 </wgt>
<wgt id='1216'> -6.7245886e+04 </wgt>
<wgt id='1217'> -6.8641579e+04 </wgt>
<wgt id='1218'> -7.0673060e+04 </wgt>
<wgt id='1219'> -7.3579194e+04 </wgt>
<wgt id='1220'> -7.5724922e+04 </wgt>
<wgt id='1221'> -7.8031310e+04 </wgt>
<wgt id='1222'> -7.9368336e+04 </wgt>
<wgt id='1223'> -7.1112038e+04 </wgt>
<wgt id='1224'> -7.0979028e+04 </wgt>
<wgt id='1225'> -7.1399313e+04 </wgt>
<wgt id='1226'> -7.0864266e+04 </wgt>
<wgt id='1227'> -7.1160108e+04 </wgt>
<wgt id='1228'> -7.0832001e+04 </wgt>
<wgt id='1229'> -7.1227613e+04 </wgt>
<wgt id='1230'> -7.1121086e+04 </wgt>
<wgt id='1231'> -7.0815431e+04 </wgt>
<wgt id='1232'> -7.1281927e+04 </wgt>
<wgt id='1233'> -7.1467820e+04 </wgt>
<wgt id='1234'> -7.1113857e+04 </wgt>
<wgt id='1235'> -7.1129019e+04 </wgt>
<wgt id='1236'> -7.1103272e+04 </wgt>
<wgt id='1237'> -7.1054164e+04 </wgt>
<wgt id='1238'> -7.0782611e+04 </wgt>
<wgt id='1239'> -7.1296586e+04 </wgt>
<wgt id='1240'> -7.1054158e+04 </wgt>
<wgt id='1241'> -7.1042220e+04 </wgt>
<wgt id='1242'> -7.0944866e+04 </wgt>
<wgt id='1243'> -7.0712251e+04 </wgt>
<wgt id='1244'> -7.1381914e+04 </wgt>
<wgt id='1245'> -7.1252782e+04 </wgt>
<wgt id='1246'> -7.1026532e+04 </wgt>
<wgt id='1247'> -7.1211021e+04 </wgt>
<wgt id='1248'> -7.0969630e+04 </wgt>
<wgt id='1249'> -7.0890114e+04 </wgt>
<wgt id='1250'> -7.1219733e+04 </wgt>
<wgt id='1251'> -7.1328430e+04 </wgt>
<wgt id='1252'> -7.1311279e+04 </wgt>
<wgt id='1253'> -7.0506761e+04 </wgt>
<wgt id='1254'> -7.0693994e+04 </wgt>
<wgt id='1255'> -7.1215146e+04 </wgt>
<wgt id='1256'> -7.1368442e+04 </wgt>
<wgt id='1257'> -7.0893583e+04 </wgt>
<wgt id='1258'> -7.1027577e+04 </wgt>
<wgt id='1259'> -7.0856686e+04 </wgt>
<wgt id='1260'> -7.1179883e+04 </wgt>
<wgt id='1261'> -7.0714435e+04 </wgt>
<wgt id='1262'> -7.1114396e+04 </wgt>
<wgt id='1263'> -7.0795628e+04 </wgt>
<wgt id='1264'> -7.1349682e+04 </wgt>
<wgt id='1265'> -7.1386622e+04 </wgt>
<wgt id='1266'> -7.1320148e+04 </wgt>
<wgt id='1267'> -7.1603464e+04 </wgt>
<wgt id='1268'> -7.1559649e+04 </wgt>
<wgt id='1269'> -7.1135883e+04 </wgt>
<wgt id='1270'> -7.1188847e+04 </wgt>
<wgt id='1271'> -7.1493966e+04 </wgt>
<wgt id='1272'> -7.1144732e+04 </wgt>
<wgt id='1273'> -7.1225230e+04 </wgt>
<wgt id='1274'> -7.0981583e+04 </wgt>
<wgt id='1275'> -7.0688553e+04 </wgt>
<wgt id='1276'> -7.1945236e+04 </wgt>
<wgt id='1277'> -7.1436577e+04 </wgt>
<wgt id='1278'> -7.1461534e+04 </wgt>
<wgt id='1279'> -7.1714988e+04 </wgt>
<wgt id='1280'> -7.0811305e+04 </wgt>
<wgt id='1281'> -7.0657402e+04 </wgt>
<wgt id='1282'> -7.0670847e+04 </wgt>
<wgt id='1283'> -7.0675818e+04 </wgt>
<wgt id='1284'> -7.0927922e+04 </wgt>
<wgt id='1285'> -7.1718906e+04 </wgt>
<wgt id='1286'> -7.0534624e+04 </wgt>
<wgt id='1287'> -7.0323431e+04 </wgt>
<wgt id='1288'> -7.1690768e+04 </wgt>
<wgt id='1289'> -7.2027664e+04 </wgt>
<wgt id='1290'> -7.1403045e+04 </wgt>
<wgt id='1291'> -7.1738070e+04 </wgt>
<wgt id='1292'> -7.1168453e+04 </wgt>
<wgt id='1293'> -7.1210805e+04 </wgt>
<wgt id='1294'> -7.1293149e+04 </wgt>
<wgt id='1295'> -7.0819772e+04 </wgt>
<wgt id='1296'> -7.1366942e+04 </wgt>
<wgt id='1297'> -7.1361732e+04 </wgt>
<wgt id='1298'> -7.0812152e+04 </wgt>
<wgt id='1299'> -7.1530510e+04 </wgt>
<wgt id='1300'> -7.0823639e+04 </wgt>
<wgt id='1301'> -7.1590486e+04 </wgt>
<wgt id='1302'> -7.1572487e+04 </wgt>
<wgt id='1303'> -7.0981181e+04 </wgt>
<wgt id='1304'> -7.0698999e+04 </wgt>
<wgt id='1305'> -7.0596767e+04 </wgt>
<wgt id='1306'> -7.0797142e+04 </wgt>
<wgt id='1307'> -7.1241764e+04 </wgt>
<wgt id='1308'> -7.0926045e+04 </wgt>
<wgt id='1309'> -7.0966894e+04 </wgt>
<wgt id='1310'> -7.1488054e+04 </wgt>
<wgt id='1311'> -7.0692463e+04 </wgt>
<wgt id='1312'> -7.1348178e+04 </wgt>
<wgt id='1313'> -7.1328622e+04 </wgt>
<wgt id='1314'> -7.0870140e+04 </wgt>
<wgt id='1315'> -7.0907874e+04 </wgt>
<wgt id='1316'> -7.1068762e+04 </wgt>
<wgt id='1317'> -7.1231281e+04 </wgt>
<wgt id='1318'> -7.0830066e+04 </wgt>
<wgt id='1319'> -7.1155981e+04 </wgt>
<wgt id='1320'> -7.0945322e+04 </wgt>
<wgt id='1321'> -7.0785803e+04 </wgt>
<wgt id='1322'> -7.1858309e+04 </wgt>
<wgt id='1323'> -7.1029122e+04 </wgt>
<wgt id='1324'> -6.9645482e+04 </wgt>
<wgt id='1325'> -7.3821866e+04 </wgt>
<wgt id='1326'> -6.9832064e+04 </wgt>
<wgt id='1327'> -6.8577326e+04 </wgt>
<wgt id='1328'> -7.2592139e+04 </wgt>
<wgt id='1329'> -7.0418556e+04 </wgt>
<wgt id='1330'> -7.1746909e+04 </wgt>
<wgt id='1331'> -7.3817196e+04 </wgt>
<wgt id='1332'> -7.0150047e+04 </wgt>
<wgt id='1333'> -7.7052154e+04 </wgt>
<wgt id='1334'> -7.4909057e+04 </wgt>
<wgt id='1335'> -7.0706618e+04 </wgt>
<wgt id='1336'> -7.5086475e+04 </wgt>
<wgt id='1337'> -7.2896874e+04 </wgt>
<wgt id='1338'> -7.2687694e+04 </wgt>
<wgt id='1339'> -7.3299220e+04 </wgt>
<wgt id='1340'> -7.2177064e+04 </wgt>
<wgt id='1341'> -7.0159651e+04 </wgt>
<wgt id='1342'> -7.5172182e+04 </wgt>
<wgt id='1343'> -7.3335096e+04 </wgt>
<wgt id='1344'> -7.2778533e+04 </wgt>
<wgt id='1345'> -7.5382428e+04 </wgt>
<wgt id='1346'> -7.2351840e+04 </wgt>
<wgt id='1347'> -7.4951898e+04 </wgt>
<wgt id='1348'> -7.1617504e+04 </wgt>
<wgt id='1349'> -7.4010227e+04 </wgt>
<wgt id='1350'> -6.9801858e+04 </wgt>
<wgt id='1351'> -7.3991893e+04 </wgt>
<wgt id='1352'> -6.8070667e+04 </wgt>
<wgt id='1353'> -7.1349935e+04 </wgt>
<wgt id='1354'> -6.8058558e+04 </wgt>
<wgt id='1355'> -7.1291543e+04 </wgt>
<wgt id='1356'> -7.5142771e+04 </wgt>
<wgt id='1357'> -7.2133224e+04 </wgt>
<wgt id='1358'> -7.1184282e+04 </wgt>
<wgt id='1359'> -7.2999550e+04 </wgt>
<wgt id='1360'> -7.1979779e+04 </wgt>
<wgt id='1361'> -7.4753657e+04 </wgt>
<wgt id='1362'> -7.4632783e+04 </wgt>
<wgt id='1363'> -7.3216297e+04 </wgt>
<wgt id='1364'> -7.4818744e+04 </wgt>
<wgt id='1365'> -7.1097300e+04 </wgt>
<wgt id='1366'> -7.1107553e+04 </wgt>
<wgt id='1367'> -7.4886704e+04 </wgt>
<wgt id='1368'> -6.8130397e+04 </wgt>
<wgt id='1369'> -7.5234986e+04 </wgt>
<wgt id='1370'> -6.8751636e+04 </wgt>
<wgt id='1371'> -7.1085628e+04 </wgt>
<wgt id='1372'> -6.9714749e+04 </wgt>
<wgt id='1373'> -7.1847546e+04 </wgt>
<wgt id='1374'> -7.2047898e+04 </wgt>
<wgt id='1375'> -7.3076014e+04 </wgt>
<wgt id='1376'> -7.5906709e+04 </wgt>
<wgt id='1377'> -7.5479649e+04 </wgt>
<wgt id='1378'> -7.0263432e+04 </wgt>
<wgt id='1379'> -7.1412326e+04 </wgt>
<wgt id='1380'> -7.1607001e+04 </wgt>
<wgt id='1381'> -7.4002606e+04 </wgt>
<wgt id='1382'> -7.1984161e+04 </wgt>
<wgt id='1383'> -6.6704388e+04 </wgt>
<wgt id='1384'> -7.4055646e+04 </wgt>
<wgt id='1385'> -7.0609607e+04 </wgt>
<wgt id='1386'> -7.3308695e+04 </wgt>
<wgt id='1387'> -7.3400416e+04 </wgt>
<wgt id='1388'> -7.5909474e+04 </wgt>
<wgt id='1389'> -7.3270236e+04 </wgt>
<wgt id='1390'> -7.3705490e+04 </wgt>
<wgt id='1391'> -7.2974870e+04 </wgt>
<wgt id='1392'> -6.9192155e+04 </wgt>
<wgt id='1393'> -6.9501558e+04 </wgt>
<wgt id='1394'> -7.1097300e+04 </wgt>
<wgt id='1395'> -7.0656122e+04 </wgt>
<wgt id='1396'> -7.3616794e+04 </wgt>
<wgt id='1397'> -7.0412841e+04 </wgt>
<wgt id='1398'> -7.2808549e+04 </wgt>
<wgt id='1399'> -7.5590662e+04 </wgt>
<wgt id='1400'> -7.2507735e+04 </wgt>
<wgt id='1401'> -7.2108759e+04 </wgt>
<wgt id='1402'> -7.1558894e+04 </wgt>
<wgt id='1403'> -7.1143382e+04 </wgt>
<wgt id='1404'> -7.0696722e+04 </wgt>
<wgt id='1405'> -7.6318554e+04 </wgt>
<wgt id='1406'> -7.3387973e+04 </wgt>
<wgt id='1407'> -7.3706318e+04 </wgt>
<wgt id='1408'> -7.4640601e+04 </wgt>
<wgt id='1409'> -7.3771447e+04 </wgt>
<wgt id='1410'> -7.3192459e+04 </wgt>
<wgt id='1411'> -7.3401805e+04 </wgt>
<wgt id='1412'> -7.2271554e+04 </wgt>
<wgt id='1413'> -7.3595654e+04 </wgt>
<wgt id='1414'> -7.2909502e+04 </wgt>
<wgt id='1415'> -7.2719542e+04 </wgt>
<wgt id='1416'> -7.6403532e+04 </wgt>
<wgt id='1417'> -7.0081594e+04 </wgt>
<wgt id='1418'> -7.0303319e+04 </wgt>
<wgt id='1419'> -7.0405889e+04 </wgt>
<wgt id='1420'> -7.3842669e+04 </wgt>
<wgt id='1421'> -7.1203409e+04 </wgt>
<wgt id='1422'> -7.3074816e+04 </wgt>
<wgt id='1423'> -7.3686601e+04 </wgt>
<wgt id='1424'> -7.3235340e+04 </wgt>
<wgt id='1425'> -7.5205281e+04 </wgt>
<wgt id='1426'> -7.1255949e+04 </wgt>
<wgt id='1427'> -7.4094838e+04 </wgt>
<wgt id='1428'> -7.5339034e+04 </wgt>
<wgt id='1429'> -7.2254701e+04 </wgt>
<wgt id='1430'> -7.3038137e+04 </wgt>
<wgt id='1431'> -7.2388375e+04 </wgt>
<wgt id='1432'> -7.2520956e+04 </wgt>
<wgt id='1433'> -7.2391032e+04 </wgt>
<wgt id='1434'> -7.2309973e+04 </wgt>
<wgt id='1435'> -7.2344794e+04 </wgt>
<wgt id='1436'> -7.2106020e+04 </wgt>
<wgt id='1437'> -7.2494118e+04 </wgt>
<wgt id='1438'> -7.2450537e+04 </wgt>
<wgt id='1439'> -7.2458464e+04 </wgt>
<wgt id='1440'> -7.2397375e+04 </wgt>
<wgt id='1441'> -7.2567360e+04 </wgt>
<wgt id='1442'> -7.2049422e+04 </wgt>
<wgt id='1443'> -7.2312138e+04 </wgt>
<wgt id='1444'> -7.2019719e+04 </wgt>
<wgt id='1445'> -7.1979429e+04 </wgt>
<wgt id='1446'> -7.2698386e+04 </wgt>
<wgt id='1447'> -7.2341598e+04 </wgt>
<wgt id='1448'> -7.2591576e+04 </wgt>
<wgt id='1449'> -7.2209491e+04 </wgt>
<wgt id='1450'> -7.2094829e+04 </wgt>
<wgt id='1451'> -7.2585285e+04 </wgt>
<wgt id='1452'> -7.3135515e+04 </wgt>
<wgt id='1453'> -7.2304069e+04 </wgt>
<wgt id='1454'> -7.2286799e+04 </wgt>
<wgt id='1455'> -7.3256774e+04 </wgt>
<wgt id='1456'> -7.2356489e+04 </wgt>
<wgt id='1457'> -7.1956973e+04 </wgt>
<wgt id='1458'> -7.2025261e+04 </wgt>
<wgt id='1459'> -7.2237221e+04 </wgt>
<wgt id='1460'> -7.2831722e+04 </wgt>
<wgt id='1461'> -7.2634679e+04 </wgt>
<wgt id='1462'> -7.2753880e+04 </wgt>
<wgt id='1463'> -7.2620820e+04 </wgt>
<wgt id='1464'> -7.2296546e+04 </wgt>
<wgt id='1465'> -7.1807692e+04 </wgt>
<wgt id='1466'> -7.2564405e+04 </wgt>
<wgt id='1467'> -7.2493732e+04 </wgt>
<wgt id='1468'> -7.2080631e+04 </wgt>
<wgt id='1469'> -7.2618016e+04 </wgt>
<wgt id='1470'> -7.2847941e+04 </wgt>
<wgt id='1471'> -7.2733754e+04 </wgt>
<wgt id='1472'> -7.2126564e+04 </wgt>
<wgt id='1473'> -7.2354776e+04 </wgt>
<wgt id='1474'> -7.2525949e+04 </wgt>
<wgt id='1475'> -7.2289169e+04 </wgt>
<wgt id='1476'> -7.2544571e+04 </wgt>
<wgt id='1477'> -7.2507124e+04 </wgt>
<wgt id='1478'> -7.2578417e+04 </wgt>
<wgt id='1479'> -7.2037013e+04 </wgt>
<wgt id='1480'> -7.2349754e+04 </wgt>
<wgt id='1481'> -7.2366286e+04 </wgt>
<wgt id='1482'> -7.2254701e+04 </wgt>
<wgt id='1483'> -7.3038137e+04 </wgt>
<wgt id='1484'> -7.5163815e+04 </wgt>
<wgt id='1485'> -7.2100886e+04 </wgt>
<wgt id='1486'> -7.3221794e+04 </wgt>
<wgt id='1487'> -7.4724947e+04 </wgt>
<wgt id='1488'> -7.5498238e+04 </wgt>
<wgt id='1489'> -7.4202622e+04 </wgt>
<wgt id='1490'> -7.3367457e+04 </wgt>
<wgt id='1491'> -7.4459217e+04 </wgt>
<wgt id='1492'> -7.1976463e+04 </wgt>
<wgt id='1493'> -7.7800235e+04 </wgt>
<wgt id='1494'> -7.5206983e+04 </wgt>
<wgt id='1495'> -7.3449924e+04 </wgt>
<wgt id='1496'> -7.4555512e+04 </wgt>
<wgt id='1497'> -7.4310397e+04 </wgt>
<wgt id='1498'> -7.6517275e+04 </wgt>
<wgt id='1499'> -7.4492649e+04 </wgt>
<wgt id='1500'> -7.4982997e+04 </wgt>
<wgt id='1501'> -7.6217257e+04 </wgt>
<wgt id='1502'> -7.5816035e+04 </wgt>
<wgt id='1503'> -7.6120343e+04 </wgt>
<wgt id='1504'> -7.6640349e+04 </wgt>
<wgt id='1505'> -7.5493686e+04 </wgt>
<wgt id='1506'> -7.2072045e+04 </wgt>
<wgt id='1507'> -7.4384693e+04 </wgt>
<wgt id='1508'> -7.1837853e+04 </wgt>
<wgt id='1509'> -7.5597996e+04 </wgt>
<wgt id='1510'> -7.6218735e+04 </wgt>
<wgt id='1511'> -7.5904038e+04 </wgt>
<wgt id='1512'> -7.5446397e+04 </wgt>
<wgt id='1513'> -7.7886650e+04 </wgt>
<wgt id='1514'> -7.5535495e+04 </wgt>
<wgt id='1515'> -7.3414167e+04 </wgt>
<wgt id='1516'> -7.7685490e+04 </wgt>
<wgt id='1517'> -7.2181073e+04 </wgt>
<wgt id='1518'> -7.3391304e+04 </wgt>
<wgt id='1519'> -7.4475992e+04 </wgt>
<wgt id='1520'> -7.6403983e+04 </wgt>
<wgt id='1521'> -7.3280644e+04 </wgt>
<wgt id='1522'> -7.4831988e+04 </wgt>
<wgt id='1523'> -7.8886312e+04 </wgt>
<wgt id='1524'> -7.6679736e+04 </wgt>
<wgt id='1525'> -7.6115713e+04 </wgt>
<wgt id='1526'> -7.5448786e+04 </wgt>
<wgt id='1527'> -7.5594134e+04 </wgt>
<wgt id='1528'> -7.6395033e+04 </wgt>
<wgt id='1529'> -7.5002885e+04 </wgt>
<wgt id='1530'> -7.5441346e+04 </wgt>
<wgt id='1531'> -7.6615657e+04 </wgt>
<wgt id='1532'> -7.6543931e+04 </wgt>
<wgt id='1533'> -7.8043434e+04 </wgt>
<wgt id='1534'> -7.2843687e+04 </wgt>
<wgt id='1535'> -7.9023923e+04 </wgt>
<wgt id='1536'> -7.4479814e+04 </wgt>
<wgt id='1537'> -7.4725227e+04 </wgt>
<wgt id='1538'> -7.5549750e+04 </wgt>
<wgt id='1539'> -7.7692743e+04 </wgt>
<wgt id='1540'> -7.3466629e+04 </wgt>
<wgt id='1541'> -7.0242978e+04 </wgt>
<wgt id='1542'> -7.7163545e+04 </wgt>
<wgt id='1543'> -7.4247199e+04 </wgt>
<wgt id='1544'> -7.5432715e+04 </wgt>
<wgt id='1545'> -7.5327810e+04 </wgt>
<wgt id='1546'> -7.1099799e+04 </wgt>
<wgt id='1547'> -7.6236470e+04 </wgt>
<wgt id='1548'> -7.2708545e+04 </wgt>
<wgt id='1549'> -7.3322877e+04 </wgt>
<wgt id='1550'> -7.3258514e+04 </wgt>
<wgt id='1551'> -7.7876126e+04 </wgt>
<wgt id='1552'> -7.6362912e+04 </wgt>
<wgt id='1553'> -7.6144160e+04 </wgt>
<wgt id='1554'> -7.7939612e+04 </wgt>
<wgt id='1555'> -7.4927532e+04 </wgt>
<wgt id='1556'> -7.3827934e+04 </wgt>
<wgt id='1557'> -7.4342288e+04 </wgt>
<wgt id='1558'> -7.5748674e+04 </wgt>
<wgt id='1559'> -7.5596239e+04 </wgt>
<wgt id='1560'> -7.4078687e+04 </wgt>
<wgt id='1561'> -7.5287482e+04 </wgt>
<wgt id='1562'> -7.4803181e+04 </wgt>
<wgt id='1563'> -7.4185686e+04 </wgt>
<wgt id='1564'> -8.0023253e+04 </wgt>
<wgt id='1565'> -7.1624295e+04 </wgt>
<wgt id='1566'> -7.4714227e+04 </wgt>
<wgt id='1567'> -7.5773302e+04 </wgt>
<wgt id='1568'> -7.4803580e+04 </wgt>
<wgt id='1569'> -7.4922215e+04 </wgt>
<wgt id='1570'> -7.8395261e+04 </wgt>
<wgt id='1571'> -7.3591379e+04 </wgt>
<wgt id='1572'> -7.3793941e+04 </wgt>
<wgt id='1573'> -7.4543569e+04 </wgt>
<wgt id='1574'> -7.5765944e+04 </wgt>
<wgt id='1575'> -7.6793024e+04 </wgt>
<wgt id='1576'> -7.8404759e+04 </wgt>
<wgt id='1577'> -7.3567803e+04 </wgt>
<wgt id='1578'> -7.3486674e+04 </wgt>
<wgt id='1579'> -7.4920838e+04 </wgt>
<wgt id='1580'> -7.7810746e+04 </wgt>
<wgt id='1581'> -7.8096875e+04 </wgt>
<wgt id='1582'> -7.5939276e+04 </wgt>
<wgt id='1583'> -7.4020030e+04 </wgt>
<wgt id='1584'> -7.4557025e+04 </wgt>
<wgt id='1585'> -7.3990733e+04 </wgt>
<wgt id='1586'> -6.3765537e+04 </wgt>
<wgt id='1587'> -7.1489502e+04 </wgt>
<wgt id='1588'> -7.2254701e+04 </wgt>
<wgt id='1589'> -7.1931315e+04 </wgt>
<wgt id='1590'> -7.2597169e+04 </wgt>
<wgt id='1591'> -7.3038137e+04 </wgt>
<wgt id='1592'> -7.3976372e+04 </wgt>
<wgt id='1593'> -7.3595161e+04 </wgt>
<wgt id='1594'> -7.3267913e+04 </wgt>
<wgt id='1595'> -7.2745013e+04 </wgt>
<wgt id='1596'> -7.2794891e+04 </wgt>
<wgt id='1597'> -7.2712553e+04 </wgt>
<wgt id='1598'> -7.2893352e+04 </wgt>
<wgt id='1599'> -7.3585563e+04 </wgt>
<wgt id='1600'> -7.3333075e+04 </wgt>
<wgt id='1601'> -7.3530647e+04 </wgt>
<wgt id='1602'> -7.2000734e+04 </wgt>
<wgt id='1603'> -7.4750038e+04 </wgt>
<wgt id='1604'> -7.1989724e+04 </wgt>
<wgt id='1605'> -7.2478454e+04 </wgt>
<wgt id='1606'> -7.3826914e+04 </wgt>
<wgt id='1607'> -7.4838030e+04 </wgt>
<wgt id='1608'> -7.4607254e+04 </wgt>
<wgt id='1609'> -7.2407641e+04 </wgt>
<wgt id='1610'> -7.4218251e+04 </wgt>
<wgt id='1611'> -7.2755445e+04 </wgt>
<wgt id='1612'> -7.3390904e+04 </wgt>
<wgt id='1613'> -7.3998473e+04 </wgt>
<wgt id='1614'> -7.3424358e+04 </wgt>
<wgt id='1615'> -7.3727430e+04 </wgt>
<wgt id='1616'> -7.2718188e+04 </wgt>
<wgt id='1617'> -7.4825557e+04 </wgt>
<wgt id='1618'> -7.3447101e+04 </wgt>
<wgt id='1619'> -7.3540860e+04 </wgt>
<wgt id='1620'> -7.4523376e+04 </wgt>
<wgt id='1621'> -7.3027910e+04 </wgt>
<wgt id='1622'> -7.4414295e+04 </wgt>
<wgt id='1623'> -7.5665796e+04 </wgt>
<wgt id='1624'> -7.2687308e+04 </wgt>
<wgt id='1625'> -7.3649115e+04 </wgt>
<wgt id='1626'> -7.4353268e+04 </wgt>
<wgt id='1627'> -7.3960590e+04 </wgt>
<wgt id='1628'> -7.4529426e+04 </wgt>
<wgt id='1629'> -7.3294522e+04 </wgt>
<wgt id='1630'> -7.2824080e+04 </wgt>
<wgt id='1631'> -7.3748143e+04 </wgt>
<wgt id='1632'> -7.1848962e+04 </wgt>
<wgt id='1633'> -7.5189699e+04 </wgt>
<wgt id='1634'> -7.3884609e+04 </wgt>
<wgt id='1635'> -7.3904325e+04 </wgt>
<wgt id='1636'> -7.4808303e+04 </wgt>
<wgt id='1637'> -7.4437973e+04 </wgt>
<wgt id='1638'> -7.3328621e+04 </wgt>
<wgt id='1639'> -7.3435843e+04 </wgt>
<wgt id='1640'> -7.4117056e+04 </wgt>
<wgt id='1641'> -7.4057970e+04 </wgt>
<wgt id='1642'> -7.4883530e+04 </wgt>
<wgt id='1643'> -7.3502072e+04 </wgt>
<wgt id='1644'> -7.5686273e+04 </wgt>
<wgt id='1645'> -7.1312457e+04 </wgt>
<wgt id='1646'> -7.2185882e+04 </wgt>
<wgt id='1647'> -7.5082360e+04 </wgt>
<wgt id='1648'> -7.3991877e+04 </wgt>
<wgt id='1649'> -7.4808267e+04 </wgt>
<wgt id='1650'> -7.5081064e+04 </wgt>
<wgt id='1651'> -7.2007290e+04 </wgt>
<wgt id='1652'> -7.3747874e+04 </wgt>
<wgt id='1653'> -7.3676729e+04 </wgt>
<wgt id='1654'> -7.3496915e+04 </wgt>
<wgt id='1655'> -7.3396500e+04 </wgt>
<wgt id='1656'> -7.5204991e+04 </wgt>
<wgt id='1657'> -7.5119387e+04 </wgt>
<wgt id='1658'> -7.5325888e+04 </wgt>
<wgt id='1659'> -7.5625098e+04 </wgt>
<wgt id='1660'> -7.3356796e+04 </wgt>
<wgt id='1661'> -7.5869844e+04 </wgt>
<wgt id='1662'> -7.4418123e+04 </wgt>
<wgt id='1663'> -7.7484209e+04 </wgt>
<wgt id='1664'> -7.6885142e+04 </wgt>
<wgt id='1665'> -7.5652250e+04 </wgt>
<wgt id='1666'> -7.4833582e+04 </wgt>
<wgt id='1667'> -7.6768793e+04 </wgt>
<wgt id='1668'> -7.3536791e+04 </wgt>
<wgt id='1669'> -7.4715555e+04 </wgt>
<wgt id='1670'> -7.5854271e+04 </wgt>
<wgt id='1671'> -7.4493190e+04 </wgt>
<wgt id='1672'> -7.3492482e+04 </wgt>
<wgt id='1673'> -7.3128325e+04 </wgt>
<wgt id='1674'> -7.5233615e+04 </wgt>
<wgt id='1675'> -7.6727931e+04 </wgt>
<wgt id='1676'> -7.4392597e+04 </wgt>
<wgt id='1677'> -7.3001609e+04 </wgt>
<wgt id='1678'> -7.4562031e+04 </wgt>
<wgt id='1679'> -7.5079677e+04 </wgt>
<wgt id='1680'> -7.6131017e+04 </wgt>
<wgt id='1681'> -7.6308033e+04 </wgt>
<wgt id='1682'> -7.4061058e+04 </wgt>
<wgt id='1683'> -7.4446893e+04 </wgt>
<wgt id='1684'> -7.5947856e+04 </wgt>
<wgt id='1685'> -7.6178915e+04 </wgt>
<wgt id='1686'> -7.6151374e+04 </wgt>
<wgt id='1687'> -7.5147428e+04 </wgt>
<wgt id='1688'> -7.4907016e+04 </wgt>
<wgt id='1689'> -7.5112369e+04 </wgt>
<wgt id='1690'> -7.4634477e+04 </wgt>
<wgt id='1691'> -7.5328658e+04 </wgt>
<wgt id='1692'> -7.5304882e+04 </wgt>
<wgt id='1693'> -7.5251012e+04 </wgt>
<wgt id='1694'> -7.5237109e+04 </wgt>
<wgt id='1695'> -7.5315145e+04 </wgt>
<wgt id='1696'> -7.6776616e+04 </wgt>
<wgt id='1697'> -7.5230406e+04 </wgt>
<wgt id='1698'> -7.5498586e+04 </wgt>
<wgt id='1699'> -7.4685122e+04 </wgt>
<wgt id='1700'> -7.6066005e+04 </wgt>
<wgt id='1701'> -7.5683906e+04 </wgt>
<wgt id='1702'> -7.5044377e+04 </wgt>
<wgt id='1703'> -7.6216415e+04 </wgt>
<wgt id='1704'> -7.3446434e+04 </wgt>
<wgt id='1705'> -7.4968556e+04 </wgt>
<wgt id='1706'> -7.5829461e+04 </wgt>
<wgt id='1707'> -7.5220939e+04 </wgt>
<wgt id='1708'> -7.4646739e+04 </wgt>
<wgt id='1709'> -7.4008118e+04 </wgt>
<wgt id='1710'> -7.7246799e+04 </wgt>
<wgt id='1711'> -7.3670620e+04 </wgt>
<wgt id='1712'> -7.7141820e+04 </wgt>
<wgt id='1713'> -7.6563047e+04 </wgt>
<wgt id='1714'> -7.3611292e+04 </wgt>
<wgt id='1715'> -7.3559373e+04 </wgt>
<wgt id='1716'> -7.4125955e+04 </wgt>
<wgt id='1717'> -7.6469810e+04 </wgt>
<wgt id='1718'> -7.6675764e+04 </wgt>
<wgt id='1719'> -7.6205713e+04 </wgt>
<wgt id='1720'> -7.6529279e+04 </wgt>
<wgt id='1721'> -7.6415484e+04 </wgt>
<wgt id='1722'> -7.6419645e+04 </wgt>
<wgt id='1723'> -7.6551996e+04 </wgt>
<wgt id='1724'> -7.6684327e+04 </wgt>
<wgt id='1725'> -7.6295324e+04 </wgt>
<wgt id='1726'> -7.6285286e+04 </wgt>
<wgt id='1727'> -7.6660224e+04 </wgt>
<wgt id='1728'> -7.5942480e+04 </wgt>
<wgt id='1729'> -7.6983145e+04 </wgt>
<wgt id='1730'> -7.6202997e+04 </wgt>
<wgt id='1731'> -7.6659446e+04 </wgt>
<wgt id='1732'> -7.6564330e+04 </wgt>
<wgt id='1733'> -7.6564330e+04 </wgt>
<wgt id='1734'> -7.5724581e+04 </wgt>
<wgt id='1735'> -7.6974329e+04 </wgt>
<wgt id='1736'> -7.6232985e+04 </wgt>
<wgt id='1737'> -7.6795215e+04 </wgt>
<wgt id='1738'> -7.7133458e+04 </wgt>
<wgt id='1739'> -7.5339110e+04 </wgt>
<wgt id='1740'> -7.6829456e+04 </wgt>
<wgt id='1741'> -7.5602703e+04 </wgt>
<wgt id='1742'> -7.6498078e+04 </wgt>
<wgt id='1743'> -7.6432133e+04 </wgt>
<wgt id='1744'> -7.6501634e+04 </wgt>
<wgt id='1745'> -7.6382838e+04 </wgt>
<wgt id='1746'> -7.5423741e+04 </wgt>
<wgt id='1747'> -7.7044003e+04 </wgt>
<wgt id='1748'> -7.6941345e+04 </wgt>
<wgt id='1749'> -7.4952634e+04 </wgt>
<wgt id='1750'> -7.6255301e+04 </wgt>
<wgt id='1751'> -7.6701965e+04 </wgt>
<wgt id='1752'> -7.6182176e+04 </wgt>
<wgt id='1753'> -7.6865155e+04 </wgt>
<wgt id='1754'> -7.6628787e+04 </wgt>
<wgt id='1755'> -7.6383517e+04 </wgt>
<wgt id='1756'> -7.6546957e+04 </wgt>
<wgt id='1757'> -7.6243135e+04 </wgt>
<wgt id='1758'> -7.6219611e+04 </wgt>
<wgt id='1759'> -7.6411854e+04 </wgt>
<wgt id='1760'> -7.6825515e+04 </wgt>
<wgt id='1761'> -7.5936611e+04 </wgt>
<wgt id='1762'> -7.6115951e+04 </wgt>
<wgt id='1763'> -7.7579631e+04 </wgt>
<wgt id='1764'> -7.6298186e+04 </wgt>
<wgt id='1765'> -7.7260828e+04 </wgt>
<wgt id='1766'> -7.5986145e+04 </wgt>
<wgt id='1767'> -7.7149107e+04 </wgt>
<wgt id='1768'> -7.6360875e+04 </wgt>
<wgt id='1769'> -7.6612342e+04 </wgt>
<wgt id='1770'> -7.6484063e+04 </wgt>
<wgt id='1771'> -7.6623561e+04 </wgt>
<wgt id='1772'> -7.6407131e+04 </wgt>
<wgt id='1773'> -7.6315989e+04 </wgt>
<wgt id='1774'> -7.5720045e+04 </wgt>
<wgt id='1775'> -7.6909472e+04 </wgt>
<wgt id='1776'> -7.7069942e+04 </wgt>
<wgt id='1777'> -7.6113753e+04 </wgt>
<wgt id='1778'> -7.6393019e+04 </wgt>
<wgt id='1779'> -7.6768859e+04 </wgt>
<wgt id='1780'> -7.6960730e+04 </wgt>
<wgt id='1781'> -7.6476029e+04 </wgt>
<wgt id='1782'> -7.6469810e+04 </wgt>
<wgt id='1783'> -7.6462317e+04 </wgt>
<wgt id='1784'> -7.4151883e+04 </wgt>
<wgt id='1785'> -7.2796913e+04 </wgt>
<wgt id='1786'> -7.4344352e+04 </wgt>
<wgt id='1787'> -7.3904650e+04 </wgt>
<wgt id='1788'> -7.3252418e+04 </wgt>
<wgt id='1789'> -7.4124592e+04 </wgt>
<wgt id='1790'> -7.3658477e+04 </wgt>
<wgt id='1791'> -7.4172275e+04 </wgt>
<wgt id='1792'> -7.4331396e+04 </wgt>
<wgt id='1793'> -7.4052641e+04 </wgt>
<wgt id='1794'> -7.4169403e+04 </wgt>
<wgt id='1795'> -7.3924532e+04 </wgt>
<wgt id='1796'> -7.4720349e+04 </wgt>
<wgt id='1797'> -7.3792314e+04 </wgt>
<wgt id='1798'> -7.3953020e+04 </wgt>
<wgt id='1799'> -7.4482311e+04 </wgt>
<wgt id='1800'> -7.4241418e+04 </wgt>
<wgt id='1801'> -7.4271123e+04 </wgt>
<wgt id='1802'> -7.4321790e+04 </wgt>
<wgt id='1803'> -7.3370580e+04 </wgt>
<wgt id='1804'> -7.3836262e+04 </wgt>
<wgt id='1805'> -7.3702729e+04 </wgt>
<wgt id='1806'> -7.3546428e+04 </wgt>
<wgt id='1807'> -7.3974293e+04 </wgt>
<wgt id='1808'> -7.4191410e+04 </wgt>
<wgt id='1809'> -7.3933996e+04 </wgt>
<wgt id='1810'> -7.4685718e+04 </wgt>
<wgt id='1811'> -7.3082779e+04 </wgt>
<wgt id='1812'> -7.4104897e+04 </wgt>
<wgt id='1813'> -7.4226977e+04 </wgt>
<wgt id='1814'> -7.4079015e+04 </wgt>
<wgt id='1815'> -7.4124060e+04 </wgt>
<wgt id='1816'> -7.3834136e+04 </wgt>
<wgt id='1817'> -7.3849039e+04 </wgt>
<wgt id='1818'> -7.3576776e+04 </wgt>
<wgt id='1819'> -7.4473144e+04 </wgt>
<wgt id='1820'> -7.4033852e+04 </wgt>
<wgt id='1821'> -7.4197389e+04 </wgt>
<wgt id='1822'> -7.4287615e+04 </wgt>
<wgt id='1823'> -7.4081216e+04 </wgt>
<wgt id='1824'> -7.3761371e+04 </wgt>
<wgt id='1825'> -7.3768006e+04 </wgt>
<wgt id='1826'> -7.5165324e+04 </wgt>
<wgt id='1827'> -8.3048401e+04 </wgt>
<wgt id='1828'> -8.3215628e+04 </wgt>
<wgt id='1829'> -8.2982202e+04 </wgt>
<wgt id='1830'> -8.3287722e+04 </wgt>
<wgt id='1831'> -8.2908945e+04 </wgt>
<wgt id='1832'> -8.3123047e+04 </wgt>
<wgt id='1833'> -8.3074191e+04 </wgt>
<wgt id='1834'> -8.2801733e+04 </wgt>
<wgt id='1835'> -8.3377493e+04 </wgt>
<wgt id='1836'> -8.2664974e+04 </wgt>
<wgt id='1837'> -8.3511261e+04 </wgt>
<wgt id='1838'> -8.0565864e+04 </wgt>
<wgt id='1839'> -8.5648078e+04 </wgt>
<wgt id='1840'> -8.3722356e+04 </wgt>
<wgt id='1841'> -8.2490548e+04 </wgt>
<wgt id='1842'> -8.3166888e+04 </wgt>
<wgt id='1843'> -8.3495915e+04 </wgt>
<wgt id='1844'> -8.4280512e+04 </wgt>
<wgt id='1845'> -8.1896839e+04 </wgt>
<wgt id='1846'> -8.3577477e+04 </wgt>
<wgt id='1847'> -8.2475230e+04 </wgt>
<wgt id='1848'> -8.2669535e+04 </wgt>
<wgt id='1849'> -8.3420120e+04 </wgt>
<wgt id='1850'> -8.4154295e+04 </wgt>
<wgt id='1851'> -8.2080510e+04 </wgt>
<wgt id='1852'> -8.3102155e+04 </wgt>
<wgt id='1853'> -8.3141308e+04 </wgt>
<wgt id='1854'> -8.1970065e+04 </wgt>
<wgt id='1855'> -8.4360113e+04 </wgt>
<wgt id='1856'> -7.1907561e+04 </wgt>
<wgt id='1857'> -7.1894986e+04 </wgt>
<wgt id='1858'> -7.1801680e+04 </wgt>
<wgt id='1859'> -7.1914898e+04 </wgt>
<wgt id='1860'> -7.1903687e+04 </wgt>
<wgt id='1861'> -7.1788382e+04 </wgt>
<wgt id='1862'> -7.1728607e+04 </wgt>
<wgt id='1863'> -7.1859725e+04 </wgt>
<wgt id='1864'> -7.1909669e+04 </wgt>
<wgt id='1865'> -7.1391144e+04 </wgt>
<wgt id='1866'> -7.2046431e+04 </wgt>
<wgt id='1867'> -7.1962079e+04 </wgt>
<wgt id='1868'> -7.2223725e+04 </wgt>
<wgt id='1869'> -7.1970227e+04 </wgt>
<wgt id='1870'> -7.1586689e+04 </wgt>
<wgt id='1871'> -7.2257610e+04 </wgt>
<wgt id='1872'> -7.1700511e+04 </wgt>
<wgt id='1873'> -7.1815013e+04 </wgt>
<wgt id='1874'> -7.1640720e+04 </wgt>
<wgt id='1875'> -7.1954282e+04 </wgt>
<wgt id='1876'> -7.2074538e+04 </wgt>
<wgt id='1877'> -7.1693060e+04 </wgt>
<wgt id='1878'> -7.1846456e+04 </wgt>
<wgt id='1879'> -7.2187973e+04 </wgt>
<wgt id='1880'> -7.2219148e+04 </wgt>
<wgt id='1881'> -7.1937375e+04 </wgt>
<wgt id='1882'> -7.2100552e+04 </wgt>
<wgt id='1883'> -7.1919648e+04 </wgt>
<wgt id='1884'> -7.0362751e+04 </wgt>
<wgt id='1885'> -7.1141644e+04 </wgt>
<wgt id='1886'> -7.0509843e+04 </wgt>
<wgt id='1887'> -7.8573482e+04 </wgt>
<wgt id='1888'> -6.7878987e+04 </wgt>
<wgt id='1889'> -8.4196540e+04 </wgt>
</rwgt>
</event>
<event npLO=" -1 " npNLO=" 0 ">
 5      1 +7.4519530e+04 1.55235990e+01 7.55820760e-03 1.20325860e-01
        1 -1    0    0  501    0 +0.0000000000e+00 +0.0000000000e+00 +7.2032053290e+00 7.2032053290e+00 0.0000000000e+00 0.0000e+00 -1.0000e+00
       -2 -1    0    0    0  501 +0.0000000000e+00 +0.0000000000e+00 -2.2323369116e+02 2.2323369116e+02 0.0000000000e+00 0.0000e+00 1.0000e+00
      -24  2    1    2    0    0 +0.0000000000e+00 +0.0000000000e+00 -2.1603048583e+02 2.3043689649e+02 8.0199703585e+01 0.0000e+00 0.0000e+00
       13  1    3    3    0    0 -1.4518215514e+01 +3.6299314912e+01 -8.2383435753e+01 9.1189085593e+01 0.0000000000e+00 0.0000e+00 -1.0000e+00
      -14  1    3    3    0    0 +1.4518215514e+01 -3.6299314912e+01 -1.3364705008e+02 1.3924781090e+02 0.0000000000e+00 0.0000e+00 1.0000e+00
#aMCatNLO 1  0  0  2  1 0.92958950E+01 0.00000000E+00 -9  5  0 0.00000000E+00 0.00000000E+00 0.00000000E+00 0.00000000E+00 0.00000000E+00
<rwgt>
<wgt id='1001'> +7.4519530e+04 </wgt>
<wgt id='1002'> +7.1776945e+04 </wgt>
<wgt id='1003'> +7.7936999e+04 </wgt>
<wgt id='1004'> +8.1834126e+04 </wgt>
<wgt id='1005'> +7.8876581e+04 </wgt>
<wgt id='1006'> +8.5519439e+04 </wgt>
<wgt id='1007'> +6.6264611e+04 </wgt>
<wgt id='1008'> +6.3779769e+04 </wgt>
<wgt id='1009'> +6.9360907e+04 </wgt>
<wgt id='1010'> +7.4519530e+04 </wgt>
<wgt id='1011'> +7.4399360e+04 </wgt>
<wgt id='1012'> +7.4518326e+04 </wgt>
<wgt id='1013'> +7.4302226e+04 </wgt>
<wgt id='1014'> +7.4948523e+04 </wgt>
<wgt id='1015'> +7.3731539e+04 </wgt>
<wgt id='1016'> +7.4701468e+04 </wgt>
<wgt id='1017'> +7.4262551e+04 </wgt>
<wgt id='1018'> +7.4092522e+04 </wgt>
<wgt id='1019'> +7.4680675e+04 </wgt>
<wgt id='1020'> +7.4157475e+04 </wgt>
<wgt id='1021'> +7.4869709e+04 </wgt>
<wgt id='1022'> +7.4684512e+04 </wgt>
<wgt id='1023'> +7.5275125e+04 </wgt>
<wgt id='1024'> +7.4314185e+04 </wgt>
<wgt id='1025'> +7.5703834e+04 </wgt>
<wgt id='1026'> +7.4126239e+04 </wgt>
<wgt id='1027'> +7.4467260e+04 </wgt>
<wgt id='1028'> +7.3923236e+04 </wgt>
<wgt id='1029'> +7.4937342e+04 </wgt>
<wgt id='1030'> +7.4991070e+04 </wgt>
<wgt id='1031'> +7.4182675e+04 </wgt>
<wgt id='1032'> +7.4606190e+04 </wgt>
<wgt id='1033'> +7.4180674e+04 </wgt>
<wgt id='1034'> +7.4033281e+04 </wgt>
<wgt id='1035'> +7.4577709e+04 </wgt>
<wgt id='1036'> +7.4424058e+04 </wgt>
<wgt id='1037'> +7.5166271e+04 </wgt>
<wgt id='1038'> +7.4597942e+04 </wgt>
<wgt id='1039'> +7.4904287e+04 </wgt>
<wgt id='1040'> +7.4549392e+04 </wgt>
<wgt id='1041'> +7.4891326e+04 </wgt>
<wgt id='1042'> +7.4509623e+04 </wgt>
<wgt id='1043'> +7.4387970e+04 </wgt>
<wgt id='1044'> +7.4498345e+04 </wgt>
<wgt id='1045'> +7.4287124e+04 </wgt>
<wgt id='1046'> +7.4399929e+04 </wgt>
<wgt id='1047'> +7.4630317e+04 </wgt>
<wgt id='1048'> +7.4731097e+04 </wgt>
<wgt id='1049'> +7.4479361e+04 </wgt>
<wgt id='1050'> +7.4238726e+04 </wgt>
<wgt id='1051'> +7.4179359e+04 </wgt>
<wgt id='1052'> +7.4396361e+04 </wgt>
<wgt id='1053'> +7.4604927e+04 </wgt>
<wgt id='1054'> +7.4518550e+04 </wgt>
<wgt id='1055'> +7.4652637e+04 </wgt>
<wgt id='1056'> +7.4747693e+04 </wgt>
<wgt id='1057'> +7.4495874e+04 </wgt>
<wgt id='1058'> +7.4902153e+04 </wgt>
<wgt id='1059'> +7.4072822e+04 </wgt>
<wgt id='1060'> +7.4666302e+04 </wgt>
<wgt id='1061'> +7.4671936e+04 </wgt>
<wgt id='1062'> +7.4363283e+04 </wgt>
<wgt id='1063'> +7.4373963e+04 </wgt>
<wgt id='1064'> +7.4440206e+04 </wgt>
<wgt id='1065'> +7.4680120e+04 </wgt>
<wgt id='1066'> +7.4614869e+04 </wgt>
<wgt id='1067'> +7.4667879e+04 </wgt>
<wgt id='1068'> +7.4572776e+04 </wgt>
<wgt id='1069'> +7.4555045e+04 </wgt>
<wgt id='1070'> +7.4695407e+04 </wgt>
<wgt id='1071'> +7.4567895e+04 </wgt>
<wgt id='1072'> +7.4412631e+04 </wgt>
<wgt id='1073'> +7.4316873e+04 </wgt>
<wgt id='1074'> +7.4499040e+04 </wgt>
<wgt id='1075'> +7.4550399e+04 </wgt>
<wgt id='1076'> +7.4674452e+04 </wgt>
<wgt id='1077'> +7.4670547e+04 </wgt>
<wgt id='1078'> +7.4659216e+04 </wgt>
<wgt id='1079'> +7.4370552e+04 </wgt>
<wgt id='1080'> +7.4609651e+04 </wgt>
<wgt id='1081'> +7.4446172e+04 </wgt>
<wgt id='1082'> +7.4437614e+04 </wgt>
<wgt id='1083'> +7.4572665e+04 </wgt>
<wgt id='1084'> +7.4517992e+04 </wgt>
<wgt id='1085'> +7.4577218e+04 </wgt>
<wgt id='1086'> +7.4522029e+04 </wgt>
<wgt id='1087'> +7.4582604e+04 </wgt>
<wgt id='1088'> +7.4603028e+04 </wgt>
<wgt id='1089'> +7.4416064e+04 </wgt>
<wgt id='1090'> +7.4492598e+04 </wgt>
<wgt id='1091'> +7.4531294e+04 </wgt>
<wgt id='1092'> +7.4564971e+04 </wgt>
<wgt id='1093'> +7.4574062e+04 </wgt>
<wgt id='1094'> +7.4651628e+04 </wgt>
<wgt id='1095'> +7.4493344e+04 </wgt>
<wgt id='1096'> +7.4448923e+04 </wgt>
<wgt id='1097'> +7.4551629e+04 </wgt>
<wgt id='1098'> +7.4464512e+04 </wgt>
<wgt id='1099'> +7.4575689e+04 </wgt>
<wgt id='1100'> +7.4458775e+04 </wgt>
<wgt id='1101'> +7.4503702e+04 </wgt>
<wgt id='1102'> +7.4515055e+04 </wgt>
<wgt id='1103'> +7.4602101e+04 </wgt>
<wgt id='1104'> +7.4586993e+04 </wgt>
<wgt id='1105'> +7.4529779e+04 </wgt>
<wgt id='1106'> +7.4592227e+04 </wgt>
<wgt id='1107'> +7.4459748e+04 </wgt>
<wgt id='1108'> +7.4529893e+04 </wgt>
<wgt id='1109'> +7.4558746e+04 </wgt>
<wgt id='1110'> +7.4519534e+04 </wgt>
<wgt id='1111'> +7.4372983e+04 </wgt>
<wgt id='1112'> +7.5165367e+04 </wgt>
<wgt id='1113'> +7.4519534e+04 </wgt>
<wgt id='1114'> +8.2843934e+04 </wgt>
<wgt id='1115'> +7.4576768e+04 </wgt>
<wgt id='1116'> +7.4965846e+04 </wgt>
<wgt id='1117'> +7.6527871e+04 </wgt>
<wgt id='1118'> +7.2724469e+04 </wgt>
<wgt id='1119'> +7.6225404e+04 </wgt>
<wgt id='1120'> +7.3519712e+04 </wgt>
<wgt id='1121'> +7.0932175e+04 </wgt>
<wgt id='1122'> +7.3059624e+04 </wgt>
<wgt id='1123'> +7.4767795e+04 </wgt>
<wgt id='1124'> +7.4927289e+04 </wgt>
<wgt id='1125'> +7.2908301e+04 </wgt>
<wgt id='1126'> +7.3269022e+04 </wgt>
<wgt id='1127'> +7.3769599e+04 </wgt>
<wgt id='1128'> +7.4164667e+04 </wgt>
<wgt id='1129'> +7.2950341e+04 </wgt>
<wgt id='1130'> +7.8821869e+04 </wgt>
<wgt id='1131'> +7.4121303e+04 </wgt>
<wgt id='1132'> +7.3850279e+04 </wgt>
<wgt id='1133'> +6.9872448e+04 </wgt>
<wgt id='1134'> +7.4413953e+04 </wgt>
<wgt id='1135'> +7.8026188e+04 </wgt>
<wgt id='1136'> +7.5307701e+04 </wgt>
<wgt id='1137'> +7.4022513e+04 </wgt>
<wgt id='1138'> +7.2255025e+04 </wgt>
<wgt id='1139'> +7.2723831e+04 </wgt>
<wgt id='1140'> +8.3918271e+04 </wgt>
<wgt id='1141'> +7.4934502e+04 </wgt>
<wgt id='1142'> +7.4657234e+04 </wgt>
<wgt id='1143'> +7.6990267e+04 </wgt>
<wgt id='1144'> +7.6814306e+04 </wgt>
<wgt id='1145'> +7.4755021e+04 </wgt>
<wgt id='1146'> +7.6189306e+04 </wgt>
<wgt id='1147'> +7.4165485e+04 </wgt>
<wgt id='1148'> +7.5791123e+04 </wgt>
<wgt id='1149'> +7.5856012e+04 </wgt>
<wgt id='1150'> +7.4758800e+04 </wgt>
<wgt id='1151'> +7.2940250e+04 </wgt>
<wgt id='1152'> +7.3683929e+04 </wgt>
<wgt id='1153'> +7.2752091e+04 </wgt>
<wgt id='1154'> +7.5438530e+04 </wgt>
<wgt id='1155'> +7.5352881e+04 </wgt>
<wgt id='1156'> +7.8773569e+04 </wgt>
<wgt id='1157'> +7.6677185e+04 </wgt>
<wgt id='1158'> +7.2028483e+04 </wgt>
<wgt id='1159'> +7.5273566e+04 </wgt>
<wgt id='1160'> +7.6086667e+04 </wgt>
<wgt id='1161'> +6.9694361e+04 </wgt>
<wgt id='1162'> +7.5928344e+04 </wgt>
<wgt id='1163'> +7.6419950e+04 </wgt>
<wgt id='1164'> +7.1724087e+04 </wgt>
<wgt id='1165'> +7.2543722e+04 </wgt>
<wgt id='1166'> +7.5166300e+04 </wgt>
<wgt id='1167'> +7.7007901e+04 </wgt>
<wgt id='1168'> +7.4578761e+04 </wgt>
<wgt id='1169'> +7.6353377e+04 </wgt>
<wgt id='1170'> +7.7848575e+04 </wgt>
<wgt id='1171'> +7.3809401e+04 </wgt>
<wgt id='1172'> +7.4116464e+04 </wgt>
<wgt id='1173'> +7.4743306e+04 </wgt>
<wgt id='1174'> +7.8157818e+04 </wgt>
<wgt id='1175'> +7.2897311e+04 </wgt>
<wgt id='1176'> +7.6500995e+04 </wgt>
<wgt id='1177'> +7.0739721e+04 </wgt>
<wgt id='1178'> +7.4587110e+04 </wgt>
<wgt id='1179'> +7.1172550e+04 </wgt>
<wgt id='1180'> +7.4913645e+04 </wgt>
<wgt id='1181'> +7.5102608e+04 </wgt>
<wgt id='1182'> +7.4897910e+04 </wgt>
<wgt id='1183'> +7.4099503e+04 </wgt>
<wgt id='1184'> +7.3657732e+04 </wgt>
<wgt id='1185'> +6.9785482e+04 </wgt>
<wgt id='1186'> +6.8369603e+04 </wgt>
<wgt id='1187'> +7.1300226e+04 </wgt>
<wgt id='1188'> +7.1066536e+04 </wgt>
<wgt id='1189'> +7.6897094e+04 </wgt>
<wgt id='1190'> +7.5088602e+04 </wgt>
<wgt id='1191'> +7.4694600e+04 </wgt>
<wgt id='1192'> +7.2416970e+04 </wgt>
<wgt id='1193'> +7.6182087e+04 </wgt>
<wgt id='1194'> +7.7546435e+04 </wgt>
<wgt id='1195'> +7.2950341e+04 </wgt>
<wgt id='1196'> +7.3119546e+04 </wgt>
<wgt id='1197'> +7.3538074e+04 </wgt>
<wgt id='1198'> +7.4744469e+04 </wgt>
<wgt id='1199'> +7.9683347e+04 </wgt>
<wgt id='1200'> +7.4507591e+04 </wgt>
<wgt id='1201'> +7.9766910e+04 </wgt>
<wgt id='1202'> +6.8006401e+04 </wgt>
<wgt id='1203'> +7.3409087e+04 </wgt>
<wgt id='1204'> +7.4123176e+04 </wgt>
<wgt id='1205'> +6.8716044e+04 </wgt>
<wgt id='1206'> +7.2757572e+04 </wgt>
<wgt id='1207'> +7.3912922e+04 </wgt>
<wgt id='1208'> +7.5983260e+04 </wgt>
<wgt id='1209'> +7.4282466e+04 </wgt>
<wgt id='1210'> +7.6369454e+04 </wgt>
<wgt id='1211'> +7.5296060e+04 </wgt>
<wgt id='1212'> +7.3152476e+04 </wgt>
<wgt id='1213'> +7.4983459e+04 </wgt>
<wgt id='1214'> +7.4703292e+04 </wgt>
<wgt id='1215'> +7.3529270e+04 </wgt>
<wgt id='1216'> +7.3682022e+04 </wgt>
<wgt id='1217'> +7.3463698e+04 </wgt>
<wgt id='1218'> +7.3959614e+04 </wgt>
<wgt id='1219'> +7.4246792e+04 </wgt>
<wgt id='1220'> +7.5060729e+04 </wgt>
<wgt id='1221'> +7.5537545e+04 </wgt>
<wgt id='1222'> +7.5769913e+04 </wgt>
<wgt id='1223'> +7.4917104e+04 </wgt>
<wgt id='1224'> +7.4918994e+04 </wgt>
<wgt id='1225'> +7.5002553e+04 </wgt>
<wgt id='1226'> +7.4693289e+04 </wgt>
<wgt id='1227'> +7.5518977e+04 </wgt>
<wgt id='1228'> +7.4883428e+04 </wgt>
<wgt id='1229'> +7.4573693e+04 </wgt>
<wgt id='1230'> +7.4992842e+04 </wgt>
<wgt id='1231'> +7.5141462e+04 </wgt>
<wgt id='1232'> +7.5013489e+04 </wgt>
<wgt id='1233'> +7.4358501e+04 </wgt>
<wgt id='1234'> +7.4842703e+04 </wgt>
<wgt id='1235'> +7.5121043e+04 </wgt>
<wgt id='1236'> +7.5314535e+04 </wgt>
<wgt id='1237'> +7.5032954e+04 </wgt>
<wgt id='1238'> +7.4591217e+04 </wgt>
<wgt id='1239'> +7.5449722e+04 </wgt>
<wgt id='1240'> +7.4650837e+04 </wgt>
<wgt id='1241'> +7.5184510e+04 </wgt>
<wgt id='1242'> +7.5016773e+04 </wgt>
<wgt id='1243'> +7.4895721e+04 </wgt>
<wgt id='1244'> +7.5097632e+04 </wgt>
<wgt id='1245'> +7.4797781e+04 </wgt>
<wgt id='1246'> +7.4484481e+04 </wgt>
<wgt id='1247'> +7.5276576e+04 </wgt>
<wgt id='1248'> +7.4847727e+04 </wgt>
<wgt id='1249'> +7.4925562e+04 </wgt>
<wgt id='1250'> +7.5176563e+04 </wgt>
<wgt id='1251'> +7.4961002e+04 </wgt>
<wgt id='1252'> +7.5033700e+04 </wgt>
<wgt id='1253'> +7.4699554e+04 </wgt>
<wgt id='1254'> +7.5516584e+04 </wgt>
<wgt id='1255'> +7.4412418e+04 </wgt>
<wgt id='1256'> +7.5055304e+04 </wgt>
<wgt id='1257'> +7.4946419e+04 </wgt>
<wgt id='1258'> +7.4578760e+04 </wgt>
<wgt id='1259'> +7.4360343e+04 </wgt>
<wgt id='1260'> +7.4611995e+04 </wgt>
<wgt id='1261'> +7.4583033e+04 </wgt>
<wgt id='1262'> +7.4704847e+04 </wgt>
<wgt id='1263'> +7.4766481e+04 </wgt>
<wgt id='1264'> +7.4535905e+04 </wgt>
<wgt id='1265'> +7.4675527e+04 </wgt>
<wgt id='1266'> +7.5186487e+04 </wgt>
<wgt id='1267'> +7.4618428e+04 </wgt>
<wgt id='1268'> +7.4800281e+04 </wgt>
<wgt id='1269'> +7.4744799e+04 </wgt>
<wgt id='1270'> +7.5018578e+04 </wgt>
<wgt id='1271'> +7.5000737e+04 </wgt>
<wgt id='1272'> +7.4825488e+04 </wgt>
<wgt id='1273'> +7.5152298e+04 </wgt>
<wgt id='1274'> +7.5266829e+04 </wgt>
<wgt id='1275'> +7.4999155e+04 </wgt>
<wgt id='1276'> +7.4855582e+04 </wgt>
<wgt id='1277'> +7.5036240e+04 </wgt>
<wgt id='1278'> +7.4829658e+04 </wgt>
<wgt id='1279'> +7.5024076e+04 </wgt>
<wgt id='1280'> +7.4750856e+04 </wgt>
<wgt id='1281'> +7.4792506e+04 </wgt>
<wgt id='1282'> +7.5084827e+04 </wgt>
<wgt id='1283'> +7.5071399e+04 </wgt>
<wgt id='1284'> +7.4910433e+04 </wgt>
<wgt id='1285'> +7.4855710e+04 </wgt>
<wgt id='1286'> +7.5057343e+04 </wgt>
<wgt id='1287'> +7.4860207e+04 </wgt>
<wgt id='1288'> +7.4905474e+04 </wgt>
<wgt id='1289'> +7.4981410e+04 </wgt>
<wgt id='1290'> +7.4876954e+04 </wgt>
<wgt id='1291'> +7.4922892e+04 </wgt>
<wgt id='1292'> +7.4869024e+04 </wgt>
<wgt id='1293'> +7.4652818e+04 </wgt>
<wgt id='1294'> +7.4859287e+04 </wgt>
<wgt id='1295'> +7.4922070e+04 </wgt>
<wgt id='1296'> +7.4769583e+04 </wgt>
<wgt id='1297'> +7.4989713e+04 </wgt>
<wgt id='1298'> +7.4866022e+04 </wgt>
<wgt id='1299'> +7.4911399e+04 </wgt>
<wgt id='1300'> +7.4928742e+04 </wgt>
<wgt id='1301'> +7.4983482e+04 </wgt>
<wgt id='1302'> +7.4924548e+04 </wgt>
<wgt id='1303'> +7.4944129e+04 </wgt>
<wgt id='1304'> +7.4936445e+04 </wgt>
<wgt id='1305'> +7.4826918e+04 </wgt>
<wgt id='1306'> +7.5015442e+04 </wgt>
<wgt id='1307'> +7.4870494e+04 </wgt>
<wgt id='1308'> +7.4844919e+04 </wgt>
<wgt id='1309'> +7.4952420e+04 </wgt>
<wgt id='1310'> +7.4897441e+04 </wgt>
<wgt id='1311'> +7.4848338e+04 </wgt>
<wgt id='1312'> +7.4633497e+04 </wgt>
<wgt id='1313'> +7.5003354e+04 </wgt>
<wgt id='1314'> +7.4928347e+04 </wgt>
<wgt id='1315'> +7.4843130e+04 </wgt>
<wgt id='1316'> +7.5038650e+04 </wgt>
<wgt id='1317'> +7.4952605e+04 </wgt>
<wgt id='1318'> +7.5024414e+04 </wgt>
<wgt id='1319'> +7.4941575e+04 </wgt>
<wgt id='1320'> +7.4925170e+04 </wgt>
<wgt id='1321'> +7.4856661e+04 </wgt>
<wgt id='1322'> +7.4984087e+04 </wgt>
<wgt id='1323'> +7.4841814e+04 </wgt>
<wgt id='1324'> +7.4564734e+04 </wgt>
<wgt id='1325'> +7.5450568e+04 </wgt>
<wgt id='1326'> +7.1847526e+04 </wgt>
<wgt id='1327'> +7.0160296e+04 </wgt>
<wgt id='1328'> +7.3742304e+04 </wgt>
<wgt id='1329'> +7.5280579e+04 </wgt>
<wgt id='1330'> +7.2207894e+04 </wgt>
<wgt id='1331'> +7.3604394e+04 </wgt>
<wgt id='1332'> +7.5339232e+04 </wgt>
<wgt id='1333'> +7.4666092e+04 </wgt>
<wgt id='1334'> +7.4575907e+04 </wgt>
<wgt id='1335'> +7.3436441e+04 </wgt>
<wgt id='1336'> +7.5118627e+04 </wgt>
<wgt id='1337'> +7.2629956e+04 </wgt>
<wgt id='1338'> +7.2968423e+04 </wgt>
<wgt id='1339'> +7.3724647e+04 </wgt>
<wgt id='1340'> +7.2735000e+04 </wgt>
<wgt id='1341'> +7.3730121e+04 </wgt>
<wgt id='1342'> +7.4180570e+04 </wgt>
<wgt id='1343'> +7.5439087e+04 </wgt>
<wgt id='1344'> +7.4269575e+04 </wgt>
<wgt id='1345'> +7.3442998e+04 </wgt>
<wgt id='1346'> +7.3057984e+04 </wgt>
<wgt id='1347'> +7.4367479e+04 </wgt>
<wgt id='1348'> +7.6492201e+04 </wgt>
<wgt id='1349'> +7.3597679e+04 </wgt>
<wgt id='1350'> +7.2346298e+04 </wgt>
<wgt id='1351'> +7.3983506e+04 </wgt>
<wgt id='1352'> +7.2490970e+04 </wgt>
<wgt id='1353'> +7.5056834e+04 </wgt>
<wgt id='1354'> +7.3861667e+04 </wgt>
<wgt id='1355'> +7.3527099e+04 </wgt>
<wgt id='1356'> +7.2575202e+04 </wgt>
<wgt id='1357'> +7.2842931e+04 </wgt>
<wgt id='1358'> +7.3073445e+04 </wgt>
<wgt id='1359'> +7.3759453e+04 </wgt>
<wgt id='1360'> +7.3607235e+04 </wgt>
<wgt id='1361'> +7.5485631e+04 </wgt>
<wgt id='1362'> +7.1828535e+04 </wgt>
<wgt id='1363'> +7.5513821e+04 </wgt>
<wgt id='1364'> +7.4201391e+04 </wgt>
<wgt id='1365'> +7.5179127e+04 </wgt>
<wgt id='1366'> +7.4545032e+04 </wgt>
<wgt id='1367'> +7.1614744e+04 </wgt>
<wgt id='1368'> +7.1387803e+04 </wgt>
<wgt id='1369'> +7.6452015e+04 </wgt>
<wgt id='1370'> +7.3149840e+04 </wgt>
<wgt id='1371'> +7.4752946e+04 </wgt>
<wgt id='1372'> +7.4302625e+04 </wgt>
<wgt id='1373'> +7.3298610e+04 </wgt>
<wgt id='1374'> +7.3610487e+04 </wgt>
<wgt id='1375'> +7.2806027e+04 </wgt>
<wgt id='1376'> +7.0911750e+04 </wgt>
<wgt id='1377'> +7.2575647e+04 </wgt>
<wgt id='1378'> +7.2853687e+04 </wgt>
<wgt id='1379'> +7.4003385e+04 </wgt>
<wgt id='1380'> +7.4827168e+04 </wgt>
<wgt id='1381'> +7.3951798e+04 </wgt>
<wgt id='1382'> +7.5307567e+04 </wgt>
<wgt id='1383'> +7.3742515e+04 </wgt>
<wgt id='1384'> +7.4612638e+04 </wgt>
<wgt id='1385'> +7.2350634e+04 </wgt>
<wgt id='1386'> +7.3108945e+04 </wgt>
<wgt id='1387'> +7.2909079e+04 </wgt>
<wgt id='1388'> +7.3944763e+04 </wgt>
<wgt id='1389'> +7.2888303e+04 </wgt>
<wgt id='1390'> +7.4851249e+04 </wgt>
<wgt id='1391'> +7.2573323e+04 </wgt>
<wgt id='1392'> +7.2359415e+04 </wgt>
<wgt id='1393'> +7.5339242e+04 </wgt>
<wgt id='1394'> +7.5179127e+04 </wgt>
<wgt id='1395'> +7.4091640e+04 </wgt>
<wgt id='1396'> +7.1101916e+04 </wgt>
<wgt id='1397'> +7.3993253e+04 </wgt>
<wgt id='1398'> +7.3905364e+04 </wgt>
<wgt id='1399'> +7.2719190e+04 </wgt>
<wgt id='1400'> +7.4782337e+04 </wgt>
<wgt id='1401'> +7.3011942e+04 </wgt>
<wgt id='1402'> +7.3934956e+04 </wgt>
<wgt id='1403'> +7.2928540e+04 </wgt>
<wgt id='1404'> +7.1899906e+04 </wgt>
<wgt id='1405'> +7.4707823e+04 </wgt>
<wgt id='1406'> +7.2841231e+04 </wgt>
<wgt id='1407'> +7.2639566e+04 </wgt>
<wgt id='1408'> +7.4673513e+04 </wgt>
<wgt id='1409'> +7.3852769e+04 </wgt>
<wgt id='1410'> +7.4532869e+04 </wgt>
<wgt id='1411'> +7.2301351e+04 </wgt>
<wgt id='1412'> +7.3440940e+04 </wgt>
<wgt id='1413'> +7.4491771e+04 </wgt>
<wgt id='1414'> +7.5602239e+04 </wgt>
<wgt id='1415'> +7.4417169e+04 </wgt>
<wgt id='1416'> +7.3606633e+04 </wgt>
<wgt id='1417'> +7.5926236e+04 </wgt>
<wgt id='1418'> +7.4125161e+04 </wgt>
<wgt id='1419'> +7.3945774e+04 </wgt>
<wgt id='1420'> +7.6291437e+04 </wgt>
<wgt id='1421'> +7.4611379e+04 </wgt>
<wgt id='1422'> +7.2037054e+04 </wgt>
<wgt id='1423'> +7.3532363e+04 </wgt>
<wgt id='1424'> +7.2084299e+04 </wgt>
<wgt id='1425'> +7.4321346e+04 </wgt>
<wgt id='1426'> +7.3076679e+04 </wgt>
<wgt id='1427'> +7.2575333e+04 </wgt>
<wgt id='1428'> +7.3833542e+04 </wgt>
<wgt id='1429'> +7.3939893e+04 </wgt>
<wgt id='1430'> +7.3413476e+04 </wgt>
<wgt id='1431'> +7.3725820e+04 </wgt>
<wgt id='1432'> +7.3815049e+04 </wgt>
<wgt id='1433'> +7.3862003e+04 </wgt>
<wgt id='1434'> +7.3716050e+04 </wgt>
<wgt id='1435'> +7.3859529e+04 </wgt>
<wgt id='1436'> +7.3383014e+04 </wgt>
<wgt id='1437'> +7.4062325e+04 </wgt>
<wgt id='1438'> +7.3780670e+04 </wgt>
<wgt id='1439'> +7.4210032e+04 </wgt>
<wgt id='1440'> +7.3626464e+04 </wgt>
<wgt id='1441'> +7.3562827e+04 </wgt>
<wgt id='1442'> +7.3474092e+04 </wgt>
<wgt id='1443'> +7.3747220e+04 </wgt>
<wgt id='1444'> +7.4362730e+04 </wgt>
<wgt id='1445'> +7.3552170e+04 </wgt>
<wgt id='1446'> +7.3605765e+04 </wgt>
<wgt id='1447'> +7.3851284e+04 </wgt>
<wgt id='1448'> +7.3890957e+04 </wgt>
<wgt id='1449'> +7.3777401e+04 </wgt>
<wgt id='1450'> +7.3837212e+04 </wgt>
<wgt id='1451'> +7.3832671e+04 </wgt>
<wgt id='1452'> +7.3917488e+04 </wgt>
<wgt id='1453'> +7.3625854e+04 </wgt>
<wgt id='1454'> +7.3675484e+04 </wgt>
<wgt id='1455'> +7.3731440e+04 </wgt>
<wgt id='1456'> +7.3577528e+04 </wgt>
<wgt id='1457'> +7.3977148e+04 </wgt>
<wgt id='1458'> +7.3621268e+04 </wgt>
<wgt id='1459'> +7.3554635e+04 </wgt>
<wgt id='1460'> +7.3864078e+04 </wgt>
<wgt id='1461'> +7.3587735e+04 </wgt>
<wgt id='1462'> +7.3523343e+04 </wgt>
<wgt id='1463'> +7.3802158e+04 </wgt>
<wgt id='1464'> +7.3720714e+04 </wgt>
<wgt id='1465'> +7.3843872e+04 </wgt>
<wgt id='1466'> +7.3675359e+04 </wgt>
<wgt id='1467'> +7.3667173e+04 </wgt>
<wgt id='1468'> +7.3701193e+04 </wgt>
<wgt id='1469'> +7.3666821e+04 </wgt>
<wgt id='1470'> +7.3831275e+04 </wgt>
<wgt id='1471'> +7.3781137e+04 </wgt>
<wgt id='1472'> +7.3736963e+04 </wgt>
<wgt id='1473'> +7.3795183e+04 </wgt>
<wgt id='1474'> +7.3685809e+04 </wgt>
<wgt id='1475'> +7.3795016e+04 </wgt>
<wgt id='1476'> +7.3781960e+04 </wgt>
<wgt id='1477'> +7.3716894e+04 </wgt>
<wgt id='1478'> +7.3786515e+04 </wgt>
<wgt id='1479'> +7.3766280e+04 </wgt>
<wgt id='1480'> +7.3658414e+04 </wgt>
<wgt id='1481'> +7.3755323e+04 </wgt>
<wgt id='1482'> +7.3939893e+04 </wgt>
<wgt id='1483'> +7.3413476e+04 </wgt>
<wgt id='1484'> +7.2912160e+04 </wgt>
<wgt id='1485'> +7.1981899e+04 </wgt>
<wgt id='1486'> +7.3971391e+04 </wgt>
<wgt id='1487'> +7.2349301e+04 </wgt>
<wgt id='1488'> +7.2335324e+04 </wgt>
<wgt id='1489'> +7.2084458e+04 </wgt>
<wgt id='1490'> +7.3758311e+04 </wgt>
<wgt id='1491'> +7.2446619e+04 </wgt>
<wgt id='1492'> +7.1630309e+04 </wgt>
<wgt id='1493'> +7.2960556e+04 </wgt>
<wgt id='1494'> +7.3528337e+04 </wgt>
<wgt id='1495'> +7.1488078e+04 </wgt>
<wgt id='1496'> +7.2365435e+04 </wgt>
<wgt id='1497'> +7.2305801e+04 </wgt>
<wgt id='1498'> +7.4579092e+04 </wgt>
<wgt id='1499'> +7.3910445e+04 </wgt>
<wgt id='1500'> +7.5377807e+04 </wgt>
<wgt id='1501'> +7.4588898e+04 </wgt>
<wgt id='1502'> +7.3470086e+04 </wgt>
<wgt id='1503'> +7.1996631e+04 </wgt>
<wgt id='1504'> +7.3648431e+04 </wgt>
<wgt id='1505'> +7.5228519e+04 </wgt>
<wgt id='1506'> +7.2889697e+04 </wgt>
<wgt id='1507'> +7.2894319e+04 </wgt>
<wgt id='1508'> +7.2733303e+04 </wgt>
<wgt id='1509'> +7.0203177e+04 </wgt>
<wgt id='1510'> +6.9307611e+04 </wgt>
<wgt id='1511'> +7.1532841e+04 </wgt>
<wgt id='1512'> +7.4576189e+04 </wgt>
<wgt id='1513'> +7.2598120e+04 </wgt>
<wgt id='1514'> +7.2533520e+04 </wgt>
<wgt id='1515'> +7.2319200e+04 </wgt>
<wgt id='1516'> +7.4616673e+04 </wgt>
<wgt id='1517'> +7.3081504e+04 </wgt>
<wgt id='1518'> +7.2809817e+04 </wgt>
<wgt id='1519'> +7.1987321e+04 </wgt>
<wgt id='1520'> +7.3003362e+04 </wgt>
<wgt id='1521'> +7.4438867e+04 </wgt>
<wgt id='1522'> +7.2696928e+04 </wgt>
<wgt id='1523'> +7.2610296e+04 </wgt>
<wgt id='1524'> +7.2912069e+04 </wgt>
<wgt id='1525'> +7.4348095e+04 </wgt>
<wgt id='1526'> +7.2843500e+04 </wgt>
<wgt id='1527'> +7.2465526e+04 </wgt>
<wgt id='1528'> +7.2275802e+04 </wgt>
<wgt id='1529'> +7.1824155e+04 </wgt>
<wgt id='1530'> +7.2778794e+04 </wgt>
<wgt id='1531'> +7.1506141e+04 </wgt>
<wgt id='1532'> +7.6373339e+04 </wgt>
<wgt id='1533'> +7.2412875e+04 </wgt>
<wgt id='1534'> +7.2930077e+04 </wgt>
<wgt id='1535'> +7.2034277e+04 </wgt>
<wgt id='1536'> +7.2772036e+04 </wgt>
<wgt id='1537'> +7.1531268e+04 </wgt>
<wgt id='1538'> +7.0809825e+04 </wgt>
<wgt id='1539'> +7.2650025e+04 </wgt>
<wgt id='1540'> +7.2813113e+04 </wgt>
<wgt id='1541'> +7.4053757e+04 </wgt>
<wgt id='1542'> +7.1996970e+04 </wgt>
<wgt id='1543'> +7.2445831e+04 </wgt>
<wgt id='1544'> +7.3539206e+04 </wgt>
<wgt id='1545'> +7.4516958e+04 </wgt>
<wgt id='1546'> +7.3476732e+04 </wgt>
<wgt id='1547'> +7.2799222e+04 </wgt>
<wgt id='1548'> +7.3096058e+04 </wgt>
<wgt id='1549'> +7.1448017e+04 </wgt>
<wgt id='1550'> +7.2862591e+04 </wgt>
<wgt id='1551'> +7.4106979e+04 </wgt>
<wgt id='1552'> +7.3352050e+04 </wgt>
<wgt id='1553'> +7.3375679e+04 </wgt>
<wgt id='1554'> +7.1941671e+04 </wgt>
<wgt id='1555'> +7.1700771e+04 </wgt>
<wgt id='1556'> +7.1533261e+04 </wgt>
<wgt id='1557'> +7.1729507e+04 </wgt>
<wgt id='1558'> +7.3757088e+04 </wgt>
<wgt id='1559'> +7.2685201e+04 </wgt>
<wgt id='1560'> +7.4184472e+04 </wgt>
<wgt id='1561'> +7.1935552e+04 </wgt>
<wgt id='1562'> +7.3195622e+04 </wgt>
<wgt id='1563'> +7.1465203e+04 </wgt>
<wgt id='1564'> +7.4038263e+04 </wgt>
<wgt id='1565'> +7.2898182e+04 </wgt>
<wgt id='1566'> +7.4352271e+04 </wgt>
<wgt id='1567'> +7.5370122e+04 </wgt>
<wgt id='1568'> +7.3494907e+04 </wgt>
<wgt id='1569'> +7.2384138e+04 </wgt>
<wgt id='1570'> +7.3074485e+04 </wgt>
<wgt id='1571'> +7.2767823e+04 </wgt>
<wgt id='1572'> +7.3387407e+04 </wgt>
<wgt id='1573'> +7.2867616e+04 </wgt>
<wgt id='1574'> +7.1278516e+04 </wgt>
<wgt id='1575'> +7.5035671e+04 </wgt>
<wgt id='1576'> +7.2971500e+04 </wgt>
<wgt id='1577'> +7.2168329e+04 </wgt>
<wgt id='1578'> +7.3010199e+04 </wgt>
<wgt id='1579'> +7.3681662e+04 </wgt>
<wgt id='1580'> +7.2346875e+04 </wgt>
<wgt id='1581'> +7.2887383e+04 </wgt>
<wgt id='1582'> +7.3906540e+04 </wgt>
<wgt id='1583'> +7.2879145e+04 </wgt>
<wgt id='1584'> +7.3137870e+04 </wgt>
<wgt id='1585'> +7.4091818e+04 </wgt>
<wgt id='1586'> +7.3490075e+04 </wgt>
<wgt id='1587'> +7.3885739e+04 </wgt>
<wgt id='1588'> +7.3939893e+04 </wgt>
<wgt id='1589'> +7.3567766e+04 </wgt>
<wgt id='1590'> +7.3723323e+04 </wgt>
<wgt id='1591'> +7.3413476e+04 </wgt>
<wgt id='1592'> +7.3343959e+04 </wgt>
<wgt id='1593'> +7.1829604e+04 </wgt>
<wgt id='1594'> +7.1600068e+04 </wgt>
<wgt id='1595'> +6.9646775e+04 </wgt>
<wgt id='1596'> +6.9878862e+04 </wgt>
<wgt id='1597'> +7.4170999e+04 </wgt>
<wgt id='1598'> +6.9211901e+04 </wgt>
<wgt id='1599'> +7.4008881e+04 </wgt>
<wgt id='1600'> +6.8762412e+04 </wgt>
<wgt id='1601'> +7.4560113e+04 </wgt>
<wgt id='1602'> +7.0376795e+04 </wgt>
<wgt id='1603'> +7.3151974e+04 </wgt>
<wgt id='1604'> +7.2125095e+04 </wgt>
<wgt id='1605'> +7.2001588e+04 </wgt>
<wgt id='1606'> +7.2766102e+04 </wgt>
<wgt id='1607'> +6.9788624e+04 </wgt>
<wgt id='1608'> +7.1635953e+04 </wgt>
<wgt id='1609'> +7.0938597e+04 </wgt>
<wgt id='1610'> +7.1218746e+04 </wgt>
<wgt id='1611'> +7.1979461e+04 </wgt>
<wgt id='1612'> +7.3133655e+04 </wgt>
<wgt id='1613'> +6.8706109e+04 </wgt>
<wgt id='1614'> +7.1373149e+04 </wgt>
<wgt id='1615'> +7.2528598e+04 </wgt>
<wgt id='1616'> +7.1613325e+04 </wgt>
<wgt id='1617'> +7.1257975e+04 </wgt>
<wgt id='1618'> +7.2237026e+04 </wgt>
<wgt id='1619'> +7.0980126e+04 </wgt>
<wgt id='1620'> +7.1501252e+04 </wgt>
<wgt id='1621'> +7.1800903e+04 </wgt>
<wgt id='1622'> +7.1660240e+04 </wgt>
<wgt id='1623'> +7.0858852e+04 </wgt>
<wgt id='1624'> +7.1642395e+04 </wgt>
<wgt id='1625'> +7.1104079e+04 </wgt>
<wgt id='1626'> +7.0421269e+04 </wgt>
<wgt id='1627'> +7.2684302e+04 </wgt>
<wgt id='1628'> +7.2207846e+04 </wgt>
<wgt id='1629'> +7.1492496e+04 </wgt>
<wgt id='1630'> +7.3349982e+04 </wgt>
<wgt id='1631'> +6.9684675e+04 </wgt>
<wgt id='1632'> +7.0021633e+04 </wgt>
<wgt id='1633'> +7.3095906e+04 </wgt>
<wgt id='1634'> +7.2650140e+04 </wgt>
<wgt id='1635'> +7.0732815e+04 </wgt>
<wgt id='1636'> +7.1578245e+04 </wgt>
<wgt id='1637'> +7.1924520e+04 </wgt>
<wgt id='1638'> +7.1996954e+04 </wgt>
<wgt id='1639'> +7.1658872e+04 </wgt>
<wgt id='1640'> +7.2586334e+04 </wgt>
<wgt id='1641'> +7.0663406e+04 </wgt>
<wgt id='1642'> +7.2424239e+04 </wgt>
<wgt id='1643'> +7.0385414e+04 </wgt>
<wgt id='1644'> +7.1895367e+04 </wgt>
<wgt id='1645'> +7.0539859e+04 </wgt>
<wgt id='1646'> +7.1687302e+04 </wgt>
<wgt id='1647'> +7.1993637e+04 </wgt>
<wgt id='1648'> +7.1478675e+04 </wgt>
<wgt id='1649'> +7.1706169e+04 </wgt>
<wgt id='1650'> +7.2063625e+04 </wgt>
<wgt id='1651'> +7.1412475e+04 </wgt>
<wgt id='1652'> +7.2018970e+04 </wgt>
<wgt id='1653'> +7.1908495e+04 </wgt>
<wgt id='1654'> +7.1784002e+04 </wgt>
<wgt id='1655'> +7.1775966e+04 </wgt>
<wgt id='1656'> +7.2346132e+04 </wgt>
<wgt id='1657'> +7.0585130e+04 </wgt>
<wgt id='1658'> +7.2229590e+04 </wgt>
<wgt id='1659'> +7.1254676e+04 </wgt>
<wgt id='1660'> +7.3038733e+04 </wgt>
<wgt id='1661'> +7.2980171e+04 </wgt>
<wgt id='1662'> +7.1236414e+04 </wgt>
<wgt id='1663'> +7.1893464e+04 </wgt>
<wgt id='1664'> +7.1121140e+04 </wgt>
<wgt id='1665'> +7.2002959e+04 </wgt>
<wgt id='1666'> +7.1838521e+04 </wgt>
<wgt id='1667'> +7.1529596e+04 </wgt>
<wgt id='1668'> +7.2752718e+04 </wgt>
<wgt id='1669'> +7.2710439e+04 </wgt>
<wgt id='1670'> +7.1326121e+04 </wgt>
<wgt id='1671'> +7.2951214e+04 </wgt>
<wgt id='1672'> +7.1162438e+04 </wgt>
<wgt id='1673'> +7.2383200e+04 </wgt>
<wgt id='1674'> +7.2238448e+04 </wgt>
<wgt id='1675'> +7.3932564e+04 </wgt>
<wgt id='1676'> +7.0508868e+04 </wgt>
<wgt id='1677'> +7.1903433e+04 </wgt>
<wgt id='1678'> +7.2501048e+04 </wgt>
<wgt id='1679'> +7.1620948e+04 </wgt>
<wgt id='1680'> +7.3548878e+04 </wgt>
<wgt id='1681'> +7.0979414e+04 </wgt>
<wgt id='1682'> +7.3002664e+04 </wgt>
<wgt id='1683'> +7.2643714e+04 </wgt>
<wgt id='1684'> +7.2007238e+04 </wgt>
<wgt id='1685'> +7.2590128e+04 </wgt>
<wgt id='1686'> +7.1536555e+04 </wgt>
<wgt id='1687'> +7.3532400e+04 </wgt>
<wgt id='1688'> +7.0281088e+04 </wgt>
<wgt id='1689'> +7.3474512e+04 </wgt>
<wgt id='1690'> +7.1289285e+04 </wgt>
<wgt id='1691'> +7.2286533e+04 </wgt>
<wgt id='1692'> +7.1647699e+04 </wgt>
<wgt id='1693'> +7.3168080e+04 </wgt>
<wgt id='1694'> +7.1840560e+04 </wgt>
<wgt id='1695'> +7.1794925e+04 </wgt>
<wgt id='1696'> +7.2211711e+04 </wgt>
<wgt id='1697'> +7.3756786e+04 </wgt>
<wgt id='1698'> +7.0822697e+04 </wgt>
<wgt id='1699'> +7.0136488e+04 </wgt>
<wgt id='1700'> +7.5245730e+04 </wgt>
<wgt id='1701'> +7.2590143e+04 </wgt>
<wgt id='1702'> +7.2178400e+04 </wgt>
<wgt id='1703'> +7.2743199e+04 </wgt>
<wgt id='1704'> +7.2167460e+04 </wgt>
<wgt id='1705'> +7.0856595e+04 </wgt>
<wgt id='1706'> +7.3454062e+04 </wgt>
<wgt id='1707'> +7.0233449e+04 </wgt>
<wgt id='1708'> +7.3778118e+04 </wgt>
<wgt id='1709'> +7.1797867e+04 </wgt>
<wgt id='1710'> +7.2895894e+04 </wgt>
<wgt id='1711'> +7.0904701e+04 </wgt>
<wgt id='1712'> +7.2801253e+04 </wgt>
<wgt id='1713'> +7.1989871e+04 </wgt>
<wgt id='1714'> +7.2298793e+04 </wgt>
<wgt id='1715'> +6.9244691e+04 </wgt>
<wgt id='1716'> +7.3198267e+04 </wgt>
<wgt id='1717'> +7.1145736e+04 </wgt>
<wgt id='1718'> +7.0966635e+04 </wgt>
<wgt id='1719'> +7.1372455e+04 </wgt>
<wgt id='1720'> +7.0972663e+04 </wgt>
<wgt id='1721'> +7.1304027e+04 </wgt>
<wgt id='1722'> +7.1013313e+04 </wgt>
<wgt id='1723'> +7.1362930e+04 </wgt>
<wgt id='1724'> +7.1592278e+04 </wgt>
<wgt id='1725'> +7.0783211e+04 </wgt>
<wgt id='1726'> +7.1124557e+04 </wgt>
<wgt id='1727'> +7.1166923e+04 </wgt>
<wgt id='1728'> +7.0157223e+04 </wgt>
<wgt id='1729'> +7.2108166e+04 </wgt>
<wgt id='1730'> +7.1513989e+04 </wgt>
<wgt id='1731'> +7.0884187e+04 </wgt>
<wgt id='1732'> +7.1630487e+04 </wgt>
<wgt id='1733'> +7.1630487e+04 </wgt>
<wgt id='1734'> +7.1097079e+04 </wgt>
<wgt id='1735'> +7.1174873e+04 </wgt>
<wgt id='1736'> +7.0870558e+04 </wgt>
<wgt id='1737'> +7.1527370e+04 </wgt>
<wgt id='1738'> +7.1446099e+04 </wgt>
<wgt id='1739'> +7.0600402e+04 </wgt>
<wgt id='1740'> +7.1050444e+04 </wgt>
<wgt id='1741'> +7.1373177e+04 </wgt>
<wgt id='1742'> +7.1075508e+04 </wgt>
<wgt id='1743'> +7.1225890e+04 </wgt>
<wgt id='1744'> +7.0914938e+04 </wgt>
<wgt id='1745'> +7.1780507e+04 </wgt>
<wgt id='1746'> +7.1135861e+04 </wgt>
<wgt id='1747'> +7.1136427e+04 </wgt>
<wgt id='1748'> +7.1355604e+04 </wgt>
<wgt id='1749'> +7.0435890e+04 </wgt>
<wgt id='1750'> +7.1186542e+04 </wgt>
<wgt id='1751'> +7.1100943e+04 </wgt>
<wgt id='1752'> +7.0764746e+04 </wgt>
<wgt id='1753'> +7.1665432e+04 </wgt>
<wgt id='1754'> +7.0850421e+04 </wgt>
<wgt id='1755'> +7.1308804e+04 </wgt>
<wgt id='1756'> +7.1161155e+04 </wgt>
<wgt id='1757'> +7.1119217e+04 </wgt>
<wgt id='1758'> +7.1455651e+04 </wgt>
<wgt id='1759'> +7.0747103e+04 </wgt>
<wgt id='1760'> +7.1484599e+04 </wgt>
<wgt id='1761'> +7.0893441e+04 </wgt>
<wgt id='1762'> +7.1122961e+04 </wgt>
<wgt id='1763'> +7.0891508e+04 </wgt>
<wgt id='1764'> +7.0961849e+04 </wgt>
<wgt id='1765'> +7.2059257e+04 </wgt>
<wgt id='1766'> +7.1360884e+04 </wgt>
<wgt id='1767'> +7.0888574e+04 </wgt>
<wgt id='1768'> +7.1189669e+04 </wgt>
<wgt id='1769'> +7.1120002e+04 </wgt>
<wgt id='1770'> +7.0792974e+04 </wgt>
<wgt id='1771'> +7.1430257e+04 </wgt>
<wgt id='1772'> +7.0926874e+04 </wgt>
<wgt id='1773'> +7.1675953e+04 </wgt>
<wgt id='1774'> +7.0600738e+04 </wgt>
<wgt id='1775'> +7.1486690e+04 </wgt>
<wgt id='1776'> +7.1539266e+04 </wgt>
<wgt id='1777'> +7.0976800e+04 </wgt>
<wgt id='1778'> +7.0596238e+04 </wgt>
<wgt id='1779'> +7.1203801e+04 </wgt>
<wgt id='1780'> +7.2194710e+04 </wgt>
<wgt id='1781'> +7.1104650e+04 </wgt>
<wgt id='1782'> +7.1145736e+04 </wgt>
<wgt id='1783'> +7.1214877e+04 </wgt>
<wgt id='1784'> +7.1819520e+04 </wgt>
<wgt id='1785'> +7.2022255e+04 </wgt>
<wgt id='1786'> +7.0672793e+04 </wgt>
<wgt id='1787'> +7.1862899e+04 </wgt>
<wgt id='1788'> +7.0226388e+04 </wgt>
<wgt id='1789'> +7.1878670e+04 </wgt>
<wgt id='1790'> +7.2358064e+04 </wgt>
<wgt id='1791'> +7.1912073e+04 </wgt>
<wgt id='1792'> +7.1614155e+04 </wgt>
<wgt id='1793'> +7.2015643e+04 </wgt>
<wgt id='1794'> +7.1689120e+04 </wgt>
<wgt id='1795'> +7.1209680e+04 </wgt>
<wgt id='1796'> +7.1981025e+04 </wgt>
<wgt id='1797'> +7.1660434e+04 </wgt>
<wgt id='1798'> +7.1886875e+04 </wgt>
<wgt id='1799'> +7.2091264e+04 </wgt>
<wgt id='1800'> +7.1968485e+04 </wgt>
<wgt id='1801'> +7.3017252e+04 </wgt>
<wgt id='1802'> +7.1842333e+04 </wgt>
<wgt id='1803'> +7.1875368e+04 </wgt>
<wgt id='1804'> +7.1934371e+04 </wgt>
<wgt id='1805'> +7.1418874e+04 </wgt>
<wgt id='1806'> +7.1735097e+04 </wgt>
<wgt id='1807'> +7.1809284e+04 </wgt>
<wgt id='1808'> +7.1892299e+04 </wgt>
<wgt id='1809'> +7.1898223e+04 </wgt>
<wgt id='1810'> +7.1679185e+04 </wgt>
<wgt id='1811'> +7.1935973e+04 </wgt>
<wgt id='1812'> +7.1778725e+04 </wgt>
<wgt id='1813'> +7.1678543e+04 </wgt>
<wgt id='1814'> +7.1948744e+04 </wgt>
<wgt id='1815'> +7.1803687e+04 </wgt>
<wgt id='1816'> +7.1748168e+04 </wgt>
<wgt id='1817'> +7.1779972e+04 </wgt>
<wgt id='1818'> +7.1899547e+04 </wgt>
<wgt id='1819'> +7.1816714e+04 </wgt>
<wgt id='1820'> +7.1841475e+04 </wgt>
<wgt id='1821'> +7.2690450e+04 </wgt>
<wgt id='1822'> +7.1724981e+04 </wgt>
<wgt id='1823'> +7.1893421e+04 </wgt>
<wgt id='1824'> +7.1796407e+04 </wgt>
<wgt id='1825'> +7.1846383e+04 </wgt>
<wgt id='1826'> +7.2545527e+04 </wgt>
<wgt id='1827'> +7.8392744e+04 </wgt>
<wgt id='1828'> +7.8630254e+04 </wgt>
<wgt id='1829'> +7.8195298e+04 </wgt>
<wgt id='1830'> +7.8288612e+04 </wgt>
<wgt id='1831'> +7.8535468e+04 </wgt>
<wgt id='1832'> +7.8495725e+04 </wgt>
<wgt id='1833'> +7.8328776e+04 </wgt>
<wgt id='1834'> +7.7848968e+04 </wgt>
<wgt id='1835'> +7.8956415e+04 </wgt>
<wgt id='1836'> +7.8798684e+04 </wgt>
<wgt id='1837'> +7.8018877e+04 </wgt>
<wgt id='1838'> +7.8526885e+04 </wgt>
<wgt id='1839'> +7.8300229e+04 </wgt>
<wgt id='1840'> +7.8253160e+04 </wgt>
<wgt id='1841'> +7.8575771e+04 </wgt>
<wgt id='1842'> +7.8406699e+04 </wgt>
<wgt id='1843'> +7.8528995e+04 </wgt>
<wgt id='1844'> +7.8183104e+04 </wgt>
<wgt id='1845'> +7.8627060e+04 </wgt>
<wgt id='1846'> +7.8715965e+04 </wgt>
<wgt id='1847'> +7.8114715e+04 </wgt>
<wgt id='1848'> +7.7307443e+04 </wgt>
<wgt id='1849'> +7.9424925e+04 </wgt>
<wgt id='1850'> +7.7652090e+04 </wgt>
<wgt id='1851'> +7.9176169e+04 </wgt>
<wgt id='1852'> +7.8308329e+04 </wgt>
<wgt id='1853'> +7.8273165e+04 </wgt>
<wgt id='1854'> +7.8047460e+04 </wgt>
<wgt id='1855'> +7.8562322e+04 </wgt>
<wgt id='1856'> +6.8498651e+04 </wgt>
<wgt id='1857'> +6.8485787e+04 </wgt>
<wgt id='1858'> +6.8437865e+04 </wgt>
<wgt id='1859'> +6.8627766e+04 </wgt>
<wgt id='1860'> +6.8501486e+04 </wgt>
<wgt id='1861'> +6.8653463e+04 </wgt>
<wgt id='1862'> +6.8156079e+04 </wgt>
<wgt id='1863'> +6.8625543e+04 </wgt>
<wgt id='1864'> +6.8223627e+04 </wgt>
<wgt id='1865'> +6.8342231e+04 </wgt>
<wgt id='1866'> +6.8738702e+04 </wgt>
<wgt id='1867'> +6.8438928e+04 </wgt>
<wgt id='1868'> +6.8503094e+04 </wgt>
<wgt id='1869'> +6.8633019e+04 </wgt>
<wgt id='1870'> +6.8297119e+04 </wgt>
<wgt id='1871'> +6.8666628e+04 </wgt>
<wgt id='1872'> +6.8325195e+04 </wgt>
<wgt id='1873'> +6.8479951e+04 </wgt>
<wgt id='1874'> +6.8532677e+04 </wgt>
<wgt id='1875'> +6.8665938e+04 </wgt>
<wgt id='1876'> +6.8513828e+04 </wgt>
<wgt id='1877'> +6.8272859e+04 </wgt>
<wgt id='1878'> +6.8447944e+04 </wgt>
<wgt id='1879'> +6.8335982e+04 </wgt>
<wgt id='1880'> +6.8553070e+04 </wgt>
<wgt id='1881'> +6.8507324e+04 </wgt>
<wgt id='1882'> +6.8825344e+04 </wgt>
<wgt id='1883'> +6.8446358e+04 </wgt>
<wgt id='1884'> +6.8929759e+04 </wgt>
<wgt id='1885'> +6.8160895e+04 </wgt>
<wgt id='1886'> +8.7373285e+04 </wgt>
<wgt id='1887'> +8.6063698e+04 </wgt>
<wgt id='1888'> +6.8874720e+04 </wgt>
<wgt id='1889'> +7.6208113e+04 </wgt>
</rwgt>
</event>
<event npLO=" -1 " npNLO=" 0 ">
 5      0 +7.4519530e+04 1.74663050e+01 7.55820760e-03 1.19304800e-01
        2 -1    0    0  501    0 +0.0000000000e+00 +0.0000000000e+00 +1.6172460560e+03 1.6172460560e+03 0.0000000000e+00 0.0000e+00 -1.0000e+00
       -1 -1    0    0    0  501 +0.0000000000e+00 +0.0000000000e+00 -1.1117764236e+00 1.1117764236e+00 0.0000000000e+00 0.0000e+00 1.0000e+00
       24  2    1    2    0    0 +0.0000000000e+00 +0.0000000000e+00 +1.6161342796e+03 1.6183578325e+03 8.4806038375e+01 0.0000e+00 0.0000e+00
      -11  1    3    3    0    0 -1.3906531168e+01 -7.4164566271e+00 +5.6858683257e+01 5.9002587230e+01 0.0000000000e+00 0.0000e+00 1.0000e+00
       12  1    3    3    0    0 +1.3906531168e+01 +7.4164566271e+00 +1.5592755964e+03 1.5593552452e+03 0.0000000000e+00 0.0000e+00 -1.0000e+00
#aMCatNLO 1  0  0  1  2 0.24234542E+01 0.00000000E+00 -9  5  0 0.00000000E+00 0.00000000E+00 0.00000000E+00 0.00000000E+00 0.00000000E+00
<rwgt>
<wgt id='1001'> +7.4519530e+04 </wgt>
<wgt id='1002'> +6.9917230e+04 </wgt>
<wgt id='1003'> +8.0242880e+04 </wgt>
<wgt id='1004'> +9.3807865e+04 </wgt>
<wgt id='1005'> +8.7582621e+04 </wgt>
<wgt id='1006'> +1.0154961e+05 </wgt>
<wgt id='1007'> +5.7032295e+04 </wgt>
<wgt id='1008'> +5.3851930e+04 </wgt>
<wgt id='1009'> +6.0987323e+04 </wgt>
<wgt id='1010'> +7.4519530e+04 </wgt>
<wgt id='1011'> +7.4478941e+04 </wgt>
<wgt id='1012'> +7.5017407e+04 </wgt>
<wgt id='1013'> +7.3798273e+04 </wgt>
<wgt id='1014'> +7.4285864e+04 </wgt>
<wgt id='1015'> +7.4333479e+04 </wgt>
<wgt id='1016'> +7.4513354e+04 </wgt>
<wgt id='1017'> +7.4471366e+04 </wgt>
<wgt id='1018'> +7.4564116e+04 </wgt>
<wgt id='1019'> +7.4038392e+04 </wgt>
<wgt id='1020'> +7.4283931e+04 </wgt>
<wgt id='1021'> +7.4629689e+04 </wgt>
<wgt id='1022'> +7.4249180e+04 </wgt>
<wgt id='1023'> +7.4592547e+04 </wgt>
<wgt id='1024'> +7.4285362e+04 </wgt>
<wgt id='1025'> +7.4451061e+04 </wgt>
<wgt id='1026'> +7.4570131e+04 </wgt>
<wgt id='1027'> +7.4392393e+04 </wgt>
<wgt id='1028'> +7.4599274e+04 </wgt>
<wgt id='1029'> +7.4796512e+04 </wgt>
<wgt id='1030'> +7.4838493e+04 </wgt>
<wgt id='1031'> +7.4585429e+04 </wgt>
<wgt id='1032'> +7.4525698e+04 </wgt>
<wgt id='1033'> +7.4402400e+04 </wgt>
<wgt id='1034'> +7.4754045e+04 </wgt>
<wgt id='1035'> +7.4478605e+04 </wgt>
<wgt id='1036'> +7.4458152e+04 </wgt>
<wgt id='1037'> +7.4404445e+04 </wgt>
<wgt id='1038'> +7.4647720e+04 </wgt>
<wgt id='1039'> +7.4941759e+04 </wgt>
<wgt id='1040'> +7.4441449e+04 </wgt>
<wgt id='1041'> +7.5057216e+04 </wgt>
<wgt id='1042'> +7.4622403e+04 </wgt>
<wgt id='1043'> +7.4652578e+04 </wgt>
<wgt id='1044'> +7.4665678e+04 </wgt>
<wgt id='1045'> +7.4465074e+04 </wgt>
<wgt id='1046'> +7.4391197e+04 </wgt>
<wgt id='1047'> +7.4822979e+04 </wgt>
<wgt id='1048'> +7.4423363e+04 </wgt>
<wgt id='1049'> +7.4562076e+04 </wgt>
<wgt id='1050'> +7.4751259e+04 </wgt>
<wgt id='1051'> +7.4794927e+04 </wgt>
<wgt id='1052'> +7.4559387e+04 </wgt>
<wgt id='1053'> +7.4497169e+04 </wgt>
<wgt id='1054'> +7.4227208e+04 </wgt>
<wgt id='1055'> +7.4537298e+04 </wgt>
<wgt id='1056'> +7.4479631e+04 </wgt>
<wgt id='1057'> +7.4345561e+04 </wgt>
<wgt id='1058'> +7.4309219e+04 </wgt>
<wgt id='1059'> +7.4547003e+04 </wgt>
<wgt id='1060'> +7.4531647e+04 </wgt>
<wgt id='1061'> +7.4426557e+04 </wgt>
<wgt id='1062'> +7.4477926e+04 </wgt>
<wgt id='1063'> +7.4445419e+04 </wgt>
<wgt id='1064'> +7.4678319e+04 </wgt>
<wgt id='1065'> +7.4573220e+04 </wgt>
<wgt id='1066'> +7.4578716e+04 </wgt>
<wgt id='1067'> +7.4684551e+04 </wgt>
<wgt id='1068'> +7.4573764e+04 </wgt>
<wgt id='1069'> +7.4517628e+04 </wgt>
<wgt id='1070'> +7.4560473e+04 </wgt>
<wgt id='1071'> +7.4563892e+04 </wgt>
<wgt id='1072'> +7.4482197e+04 </wgt>
<wgt id='1073'> +7.4482116e+04 </wgt>
<wgt id='1074'> +7.4540094e+04 </wgt>
<wgt id='1075'> +7.4564194e+04 </wgt>
<wgt id='1076'> +7.4399538e+04 </wgt>
<wgt id='1077'> +7.4526016e+04 </wgt>
<wgt id='1078'> +7.4449687e+04 </wgt>
<wgt id='1079'> +7.4499573e+04 </wgt>
<wgt id='1080'> +7.4460178e+04 </wgt>
<wgt id='1081'> +7.4493232e+04 </wgt>
<wgt id='1082'> +7.4512972e+04 </wgt>
<wgt id='1083'> +7.4632645e+04 </wgt>
<wgt id='1084'> +7.4456900e+04 </wgt>
<wgt id='1085'> +7.4504134e+04 </wgt>
<wgt id='1086'> +7.4554218e+04 </wgt>
<wgt id='1087'> +7.4529701e+04 </wgt>
<wgt id='1088'> +7.4453682e+04 </wgt>
<wgt id='1089'> +7.4683925e+04 </wgt>
<wgt id='1090'> +7.4468893e+04 </wgt>
<wgt id='1091'> +7.4592354e+04 </wgt>
<wgt id='1092'> +7.4540340e+04 </wgt>
<wgt id='1093'> +7.4580123e+04 </wgt>
<wgt id='1094'> +7.4446389e+04 </wgt>
<wgt id='1095'> +7.4575402e+04 </wgt>
<wgt id='1096'> +7.4536773e+04 </wgt>
<wgt id='1097'> +7.4598655e+04 </wgt>
<wgt id='1098'> +7.4544371e+04 </wgt>
<wgt id='1099'> +7.4564096e+04 </wgt>
<wgt id='1100'> +7.4551314e+04 </wgt>
<wgt id='1101'> +7.4484408e+04 </wgt>
<wgt id='1102'> +7.4556651e+04 </wgt>
<wgt id='1103'> +7.4563855e+04 </wgt>
<wgt id='1104'> +7.4515045e+04 </wgt>
<wgt id='1105'> +7.4568281e+04 </wgt>
<wgt id='1106'> +7.4452646e+04 </wgt>
<wgt id='1107'> +7.4465108e+04 </wgt>
<wgt id='1108'> +7.4507909e+04 </wgt>
<wgt id='1109'> +7.4587409e+04 </wgt>
<wgt id='1110'> +7.4519511e+04 </wgt>
<wgt id='1111'> +7.2805872e+04 </wgt>
<wgt id='1112'> +7.6019697e+04 </wgt>
<wgt id='1113'> +7.4519511e+04 </wgt>
<wgt id='1114'> +7.3956280e+04 </wgt>
<wgt id='1115'> +7.7261295e+04 </wgt>
<wgt id='1116'> +7.1621404e+04 </wgt>
<wgt id='1117'> +7.5361851e+04 </wgt>
<wgt id='1118'> +7.4740905e+04 </wgt>
<wgt id='1119'> +7.4369098e+04 </wgt>
<wgt id='1120'> +7.7946972e+04 </wgt>
<wgt id='1121'> +7.5024852e+04 </wgt>
<wgt id='1122'> +7.3153604e+04 </wgt>
<wgt id='1123'> +7.0018043e+04 </wgt>
<wgt id='1124'> +7.3983275e+04 </wgt>
<wgt id='1125'> +7.3730269e+04 </wgt>
<wgt id='1126'> +7.4815644e+04 </wgt>
<wgt id='1127'> +7.4942709e+04 </wgt>
<wgt id='1128'> +7.5721962e+04 </wgt>
<wgt id='1129'> +7.3081773e+04 </wgt>
<wgt id='1130'> +7.2505999e+04 </wgt>
<wgt id='1131'> +7.4924406e+04 </wgt>
<wgt id='1132'> +7.5923350e+04 </wgt>
<wgt id='1133'> +7.5213111e+04 </wgt>
<wgt id='1134'> +7.5508841e+04 </wgt>
<wgt id='1135'> +7.6973229e+04 </wgt>
<wgt id='1136'> +7.6909010e+04 </wgt>
<wgt id='1137'> +7.3993230e+04 </wgt>
<wgt id='1138'> +7.5052536e+04 </wgt>
<wgt id='1139'> +7.5244898e+04 </wgt>
<wgt id='1140'> +7.4725091e+04 </wgt>
<wgt id='1141'> +7.5725712e+04 </wgt>
<wgt id='1142'> +7.3891692e+04 </wgt>
<wgt id='1143'> +7.5311889e+04 </wgt>
<wgt id='1144'> +7.1330403e+04 </wgt>
<wgt id='1145'> +7.4880585e+04 </wgt>
<wgt id='1146'> +7.5658144e+04 </wgt>
<wgt id='1147'> +7.3341979e+04 </wgt>
<wgt id='1148'> +7.3900794e+04 </wgt>
<wgt id='1149'> +7.5074604e+04 </wgt>
<wgt id='1150'> +7.3393021e+04 </wgt>
<wgt id='1151'> +7.4897895e+04 </wgt>
<wgt id='1152'> +7.8465586e+04 </wgt>
<wgt id='1153'> +7.6382740e+04 </wgt>
<wgt id='1154'> +7.4064654e+04 </wgt>
<wgt id='1155'> +7.5127966e+04 </wgt>
<wgt id='1156'> +7.3612160e+04 </wgt>
<wgt id='1157'> +7.5099433e+04 </wgt>
<wgt id='1158'> +7.3337899e+04 </wgt>
<wgt id='1159'> +7.4093453e+04 </wgt>
<wgt id='1160'> +7.5828417e+04 </wgt>
<wgt id='1161'> +7.2235313e+04 </wgt>
<wgt id='1162'> +7.7050675e+04 </wgt>
<wgt id='1163'> +7.2277913e+04 </wgt>
<wgt id='1164'> +7.4778615e+04 </wgt>
<wgt id='1165'> +7.6324590e+04 </wgt>
<wgt id='1166'> +7.7132410e+04 </wgt>
<wgt id='1167'> +7.6295613e+04 </wgt>
<wgt id='1168'> +7.3707473e+04 </wgt>
<wgt id='1169'> +7.2666315e+04 </wgt>
<wgt id='1170'> +7.3398338e+04 </wgt>
<wgt id='1171'> +7.4528452e+04 </wgt>
<wgt id='1172'> +7.4933547e+04 </wgt>
<wgt id='1173'> +7.2266651e+04 </wgt>
<wgt id='1174'> +7.5447994e+04 </wgt>
<wgt id='1175'> +7.3511400e+04 </wgt>
<wgt id='1176'> +7.5327341e+04 </wgt>
<wgt id='1177'> +7.1793831e+04 </wgt>
<wgt id='1178'> +7.4096119e+04 </wgt>
<wgt id='1179'> +7.3350089e+04 </wgt>
<wgt id='1180'> +7.4982542e+04 </wgt>
<wgt id='1181'> +7.4872558e+04 </wgt>
<wgt id='1182'> +7.6517483e+04 </wgt>
<wgt id='1183'> +7.6410956e+04 </wgt>
<wgt id='1184'> +7.6286582e+04 </wgt>
<wgt id='1185'> +7.2015509e+04 </wgt>
<wgt id='1186'> +7.3140405e+04 </wgt>
<wgt id='1187'> +7.5112155e+04 </wgt>
<wgt id='1188'> +7.2967925e+04 </wgt>
<wgt id='1189'> +7.4350234e+04 </wgt>
<wgt id='1190'> +7.4999172e+04 </wgt>
<wgt id='1191'> +7.6077082e+04 </wgt>
<wgt id='1192'> +7.2035175e+04 </wgt>
<wgt id='1193'> +7.2982029e+04 </wgt>
<wgt id='1194'> +7.4760794e+04 </wgt>
<wgt id='1195'> +7.3081773e+04 </wgt>
<wgt id='1196'> +7.3013190e+04 </wgt>
<wgt id='1197'> +7.4578366e+04 </wgt>
<wgt id='1198'> +7.7045044e+04 </wgt>
<wgt id='1199'> +7.4219312e+04 </wgt>
<wgt id='1200'> +7.5271289e+04 </wgt>
<wgt id='1201'> +7.4259081e+04 </wgt>
<wgt id='1202'> +7.0995398e+04 </wgt>
<wgt id='1203'> +7.3832703e+04 </wgt>
<wgt id='1204'> +7.5856467e+04 </wgt>
<wgt id='1205'> +7.5788919e+04 </wgt>
<wgt id='1206'> +7.4466438e+04 </wgt>
<wgt id='1207'> +7.5171240e+04 </wgt>
<wgt id='1208'> +7.3115421e+04 </wgt>
<wgt id='1209'> +7.8335741e+04 </wgt>
<wgt id='1210'> +6.9487273e+04 </wgt>
<wgt id='1211'> +7.4131788e+04 </wgt>
<wgt id='1212'> +7.4387611e+04 </wgt>
<wgt id='1213'> +7.5158026e+04 </wgt>
<wgt id='1214'> +7.4544324e+04 </wgt>
<wgt id='1215'> +6.6758889e+04 </wgt>
<wgt id='1216'> +6.8222028e+04 </wgt>
<wgt id='1217'> +6.9891801e+04 </wgt>
<wgt id='1218'> +7.1467444e+04 </wgt>
<wgt id='1219'> +7.4045180e+04 </wgt>
<wgt id='1220'> +7.5187447e+04 </wgt>
<wgt id='1221'> +7.8024983e+04 </wgt>
<wgt id='1222'> +7.9491030e+04 </wgt>
<wgt id='1223'> +7.2645666e+04 </wgt>
<wgt id='1224'> +7.2008688e+04 </wgt>
<wgt id='1225'> +7.3508157e+04 </wgt>
<wgt id='1226'> +7.2258922e+04 </wgt>
<wgt id='1227'> +7.2862451e+04 </wgt>
<wgt id='1228'> +7.2810666e+04 </wgt>
<wgt id='1229'> +7.2134291e+04 </wgt>
<wgt id='1230'> +7.3008922e+04 </wgt>
<wgt id='1231'> +7.3242700e+04 </wgt>
<wgt id='1232'> +7.2882283e+04 </wgt>
<wgt id='1233'> +7.2616551e+04 </wgt>
<wgt id='1234'> +7.2550761e+04 </wgt>
<wgt id='1235'> +7.2871790e+04 </wgt>
<wgt id='1236'> +7.2838495e+04 </wgt>
<wgt id='1237'> +7.2361597e+04 </wgt>
<wgt id='1238'> +7.2987536e+04 </wgt>
<wgt id='1239'> +7.2785317e+04 </wgt>
<wgt id='1240'> +7.2687657e+04 </wgt>
<wgt id='1241'> +7.2760081e+04 </wgt>
<wgt id='1242'> +7.2672091e+04 </wgt>
<wgt id='1243'> +7.2571787e+04 </wgt>
<wgt id='1244'> +7.2620637e+04 </wgt>
<wgt id='1245'> +7.2749580e+04 </wgt>
<wgt id='1246'> +7.2777521e+04 </wgt>
<wgt id='1247'> +7.2741418e+04 </wgt>
<wgt id='1248'> +7.2420756e+04 </wgt>
<wgt id='1249'> +7.2637355e+04 </wgt>
<wgt id='1250'> +7.2560971e+04 </wgt>
<wgt id='1251'> +7.2836104e+04 </wgt>
<wgt id='1252'> +7.2856433e+04 </wgt>
<wgt id='1253'> +7.1885789e+04 </wgt>
<wgt id='1254'> +7.2268660e+04 </wgt>
<wgt id='1255'> +7.2867349e+04 </wgt>
<wgt id='1256'> +7.2743076e+04 </wgt>
<wgt id='1257'> +7.2604826e+04 </wgt>
<wgt id='1258'> +7.2810489e+04 </wgt>
<wgt id='1259'> +7.2726219e+04 </wgt>
<wgt id='1260'> +7.2380832e+04 </wgt>
<wgt id='1261'> +7.2724011e+04 </wgt>
<wgt id='1262'> +7.2628454e+04 </wgt>
<wgt id='1263'> +7.2599918e+04 </wgt>
<wgt id='1264'> +7.2757830e+04 </wgt>
<wgt id='1265'> +7.2806501e+04 </wgt>
<wgt id='1266'> +7.2475380e+04 </wgt>
<wgt id='1267'> +7.2656825e+04 </wgt>
<wgt id='1268'> +7.2685375e+04 </wgt>
<wgt id='1269'> +7.2527258e+04 </wgt>
<wgt id='1270'> +7.2609660e+04 </wgt>
<wgt id='1271'> +7.2762246e+04 </wgt>
<wgt id='1272'> +7.2602178e+04 </wgt>
<wgt id='1273'> +7.2609814e+04 </wgt>
<wgt id='1274'> +7.2711205e+04 </wgt>
<wgt id='1275'> +7.2741806e+04 </wgt>
<wgt id='1276'> +7.2605428e+04 </wgt>
<wgt id='1277'> +7.2683764e+04 </wgt>
<wgt id='1278'> +7.2585297e+04 </wgt>
<wgt id='1279'> +7.2601451e+04 </wgt>
<wgt id='1280'> +7.2756443e+04 </wgt>
<wgt id='1281'> +7.2682888e+04 </wgt>
<wgt id='1282'> +7.2590990e+04 </wgt>
<wgt id='1283'> +7.2628702e+04 </wgt>
<wgt id='1284'> +7.2620771e+04 </wgt>
<wgt id='1285'> +7.2526808e+04 </wgt>
<wgt id='1286'> +7.2643813e+04 </wgt>
<wgt id='1287'> +7.2633807e+04 </wgt>
<wgt id='1288'> +7.2555346e+04 </wgt>
<wgt id='1289'> +7.2572859e+04 </wgt>
<wgt id='1290'> +7.2562220e+04 </wgt>
<wgt id='1291'> +7.2681876e+04 </wgt>
<wgt id='1292'> +7.2675360e+04 </wgt>
<wgt id='1293'> +7.2469318e+04 </wgt>
<wgt id='1294'> +7.2574494e+04 </wgt>
<wgt id='1295'> +7.2557451e+04 </wgt>
<wgt id='1296'> +7.2573702e+04 </wgt>
<wgt id='1297'> +7.2764674e+04 </wgt>
<wgt id='1298'> +7.2695927e+04 </wgt>
<wgt id='1299'> +7.2644949e+04 </wgt>
<wgt id='1300'> +7.2475676e+04 </wgt>
<wgt id='1301'> +7.2682340e+04 </wgt>
<wgt id='1302'> +7.2731218e+04 </wgt>
<wgt id='1303'> +7.2645890e+04 </wgt>
<wgt id='1304'> +7.2717813e+04 </wgt>
<wgt id='1305'> +7.2707330e+04 </wgt>
<wgt id='1306'> +7.2752389e+04 </wgt>
<wgt id='1307'> +7.2663567e+04 </wgt>
<wgt id='1308'> +7.2713278e+04 </wgt>
<wgt id='1309'> +7.2584112e+04 </wgt>
<wgt id='1310'> +7.2628081e+04 </wgt>
<wgt id='1311'> +7.2660340e+04 </wgt>
<wgt id='1312'> +7.2679189e+04 </wgt>
<wgt id='1313'> +7.2731682e+04 </wgt>
<wgt id='1314'> +7.2665283e+04 </wgt>
<wgt id='1315'> +7.2663129e+04 </wgt>
<wgt id='1316'> +7.2616658e+04 </wgt>
<wgt id='1317'> +7.2573383e+04 </wgt>
<wgt id='1318'> +7.2662745e+04 </wgt>
<wgt id='1319'> +7.2632802e+04 </wgt>
<wgt id='1320'> +7.2562083e+04 </wgt>
<wgt id='1321'> +7.2680913e+04 </wgt>
<wgt id='1322'> +7.2743752e+04 </wgt>
<wgt id='1323'> +7.2732905e+04 </wgt>
<wgt id='1324'> +7.0864253e+04 </wgt>
<wgt id='1325'> +7.4148046e+04 </wgt>
<wgt id='1326'> +7.4217648e+04 </wgt>
<wgt id='1327'> +7.1875945e+04 </wgt>
<wgt id='1328'> +7.4406656e+04 </wgt>
<wgt id='1329'> +7.4713880e+04 </wgt>
<wgt id='1330'> +7.4237905e+04 </wgt>
<wgt id='1331'> +7.4656955e+04 </wgt>
<wgt id='1332'> +7.4838143e+04 </wgt>
<wgt id='1333'> +7.4700719e+04 </wgt>
<wgt id='1334'> +7.2512745e+04 </wgt>
<wgt id='1335'> +7.3585447e+04 </wgt>
<wgt id='1336'> +7.5094432e+04 </wgt>
<wgt id='1337'> +7.4970335e+04 </wgt>
<wgt id='1338'> +7.4629472e+04 </wgt>
<wgt id='1339'> +7.4786762e+04 </wgt>
<wgt id='1340'> +7.5094084e+04 </wgt>
<wgt id='1341'> +7.3263512e+04 </wgt>
<wgt id='1342'> +7.4036753e+04 </wgt>
<wgt id='1343'> +7.4009170e+04 </wgt>
<wgt id='1344'> +7.2046166e+04 </wgt>
<wgt id='1345'> +7.6562107e+04 </wgt>
<wgt id='1346'> +7.3333549e+04 </wgt>
<wgt id='1347'> +7.5347472e+04 </wgt>
<wgt id='1348'> +7.4413075e+04 </wgt>
<wgt id='1349'> +7.4292166e+04 </wgt>
<wgt id='1350'> +7.1645941e+04 </wgt>
<wgt id='1351'> +7.4660553e+04 </wgt>
<wgt id='1352'> +7.4007049e+04 </wgt>
<wgt id='1353'> +7.4301160e+04 </wgt>
<wgt id='1354'> +7.6067395e+04 </wgt>
<wgt id='1355'> +7.5303423e+04 </wgt>
<wgt id='1356'> +7.5061543e+04 </wgt>
<wgt id='1357'> +7.4140921e+04 </wgt>
<wgt id='1358'> +7.3739448e+04 </wgt>
<wgt id='1359'> +7.4554585e+04 </wgt>
<wgt id='1360'> +7.3307821e+04 </wgt>
<wgt id='1361'> +7.5979827e+04 </wgt>
<wgt id='1362'> +7.4408310e+04 </wgt>
<wgt id='1363'> +7.4103654e+04 </wgt>
<wgt id='1364'> +7.4734423e+04 </wgt>
<wgt id='1365'> +7.3732930e+04 </wgt>
<wgt id='1366'> +7.4839307e+04 </wgt>
<wgt id='1367'> +7.4110462e+04 </wgt>
<wgt id='1368'> +7.5725922e+04 </wgt>
<wgt id='1369'> +7.3217236e+04 </wgt>
<wgt id='1370'> +7.4241139e+04 </wgt>
<wgt id='1371'> +7.4188133e+04 </wgt>
<wgt id='1372'> +7.4373760e+04 </wgt>
<wgt id='1373'> +7.4078354e+04 </wgt>
<wgt id='1374'> +7.5875824e+04 </wgt>
<wgt id='1375'> +7.5910680e+04 </wgt>
<wgt id='1376'> +7.4927623e+04 </wgt>
<wgt id='1377'> +7.3981554e+04 </wgt>
<wgt id='1378'> +7.3367569e+04 </wgt>
<wgt id='1379'> +7.5781734e+04 </wgt>
<wgt id='1380'> +7.2526711e+04 </wgt>
<wgt id='1381'> +7.3595133e+04 </wgt>
<wgt id='1382'> +7.3309783e+04 </wgt>
<wgt id='1383'> +7.4781540e+04 </wgt>
<wgt id='1384'> +7.4014060e+04 </wgt>
<wgt id='1385'> +7.2758479e+04 </wgt>
<wgt id='1386'> +7.4479849e+04 </wgt>
<wgt id='1387'> +7.4382950e+04 </wgt>
<wgt id='1388'> +7.5746518e+04 </wgt>
<wgt id='1389'> +7.3661274e+04 </wgt>
<wgt id='1390'> +7.1906906e+04 </wgt>
<wgt id='1391'> +7.4457915e+04 </wgt>
<wgt id='1392'> +7.4431828e+04 </wgt>
<wgt id='1393'> +7.3131015e+04 </wgt>
<wgt id='1394'> +7.3732930e+04 </wgt>
<wgt id='1395'> +7.3999196e+04 </wgt>
<wgt id='1396'> +7.2425338e+04 </wgt>
<wgt id='1397'> +7.5334530e+04 </wgt>
<wgt id='1398'> +7.5792580e+04 </wgt>
<wgt id='1399'> +7.5244461e+04 </wgt>
<wgt id='1400'> +7.6505435e+04 </wgt>
<wgt id='1401'> +7.5139794e+04 </wgt>
<wgt id='1402'> +7.4523284e+04 </wgt>
<wgt id='1403'> +7.3497989e+04 </wgt>
<wgt id='1404'> +7.5750634e+04 </wgt>
<wgt id='1405'> +7.2291922e+04 </wgt>
<wgt id='1406'> +7.3790014e+04 </wgt>
<wgt id='1407'> +7.3853496e+04 </wgt>
<wgt id='1408'> +7.6213599e+04 </wgt>
<wgt id='1409'> +7.4749467e+04 </wgt>
<wgt id='1410'> +7.4131335e+04 </wgt>
<wgt id='1411'> +7.4707048e+04 </wgt>
<wgt id='1412'> +7.6048049e+04 </wgt>
<wgt id='1413'> +7.4886078e+04 </wgt>
<wgt id='1414'> +7.4339960e+04 </wgt>
<wgt id='1415'> +7.3862133e+04 </wgt>
<wgt id='1416'> +7.5758035e+04 </wgt>
<wgt id='1417'> +7.3947046e+04 </wgt>
<wgt id='1418'> +7.6856438e+04 </wgt>
<wgt id='1419'> +7.6015533e+04 </wgt>
<wgt id='1420'> +7.3922271e+04 </wgt>
<wgt id='1421'> +7.4247311e+04 </wgt>
<wgt id='1422'> +7.3971984e+04 </wgt>
<wgt id='1423'> +7.4186528e+04 </wgt>
<wgt id='1424'> +7.4437863e+04 </wgt>
<wgt id='1425'> +7.3546147e+04 </wgt>
<wgt id='1426'> +7.4396374e+04 </wgt>
<wgt id='1427'> +7.4541469e+04 </wgt>
<wgt id='1428'> +7.5276720e+04 </wgt>
<wgt id='1429'> +7.3900948e+04 </wgt>
<wgt id='1430'> +7.4879101e+04 </wgt>
<wgt id='1431'> +7.4320001e+04 </wgt>
<wgt id='1432'> +7.5078625e+04 </wgt>
<wgt id='1433'> +7.4315357e+04 </wgt>
<wgt id='1434'> +7.4064430e+04 </wgt>
<wgt id='1435'> +7.4204083e+04 </wgt>
<wgt id='1436'> +7.4299279e+04 </wgt>
<wgt id='1437'> +7.4349270e+04 </wgt>
<wgt id='1438'> +7.4413098e+04 </wgt>
<wgt id='1439'> +7.4217770e+04 </wgt>
<wgt id='1440'> +7.4376342e+04 </wgt>
<wgt id='1441'> +7.4323649e+04 </wgt>
<wgt id='1442'> +7.4423643e+04 </wgt>
<wgt id='1443'> +7.4329244e+04 </wgt>
<wgt id='1444'> +7.4193739e+04 </wgt>
<wgt id='1445'> +7.4259959e+04 </wgt>
<wgt id='1446'> +7.4336702e+04 </wgt>
<wgt id='1447'> +7.4091367e+04 </wgt>
<wgt id='1448'> +7.4514941e+04 </wgt>
<wgt id='1449'> +7.4310132e+04 </wgt>
<wgt id='1450'> +7.4015087e+04 </wgt>
<wgt id='1451'> +7.4305593e+04 </wgt>
<wgt id='1452'> +7.4360418e+04 </wgt>
<wgt id='1453'> +7.4280255e+04 </wgt>
<wgt id='1454'> +7.4312329e+04 </wgt>
<wgt id='1455'> +7.4142991e+04 </wgt>
<wgt id='1456'> +7.4188124e+04 </wgt>
<wgt id='1457'> +7.4445432e+04 </wgt>
<wgt id='1458'> +7.4281108e+04 </wgt>
<wgt id='1459'> +7.4348261e+04 </wgt>
<wgt id='1460'> +7.4304802e+04 </wgt>
<wgt id='1461'> +7.4328131e+04 </wgt>
<wgt id='1462'> +7.4369239e+04 </wgt>
<wgt id='1463'> +7.4259245e+04 </wgt>
<wgt id='1464'> +7.4262197e+04 </wgt>
<wgt id='1465'> +7.4286905e+04 </wgt>
<wgt id='1466'> +7.4310058e+04 </wgt>
<wgt id='1467'> +7.4121900e+04 </wgt>
<wgt id='1468'> +7.4245818e+04 </wgt>
<wgt id='1469'> +7.4314978e+04 </wgt>
<wgt id='1470'> +7.4355501e+04 </wgt>
<wgt id='1471'> +7.4243815e+04 </wgt>
<wgt id='1472'> +7.4367094e+04 </wgt>
<wgt id='1473'> +7.4338817e+04 </wgt>
<wgt id='1474'> +7.4215894e+04 </wgt>
<wgt id='1475'> +7.4303215e+04 </wgt>
<wgt id='1476'> +7.4322198e+04 </wgt>
<wgt id='1477'> +7.4239032e+04 </wgt>
<wgt id='1478'> +7.4272462e+04 </wgt>
<wgt id='1479'> +7.4272453e+04 </wgt>
<wgt id='1480'> +7.4356289e+04 </wgt>
<wgt id='1481'> +7.4263833e+04 </wgt>
<wgt id='1482'> +7.3900948e+04 </wgt>
<wgt id='1483'> +7.4879101e+04 </wgt>
<wgt id='1484'> +7.8387880e+04 </wgt>
<wgt id='1485'> +7.8302223e+04 </wgt>
<wgt id='1486'> +7.9031891e+04 </wgt>
<wgt id='1487'> +7.7203561e+04 </wgt>
<wgt id='1488'> +7.7284932e+04 </wgt>
<wgt id='1489'> +7.8436854e+04 </wgt>
<wgt id='1490'> +7.5850439e+04 </wgt>
<wgt id='1491'> +7.8531615e+04 </wgt>
<wgt id='1492'> +7.5870290e+04 </wgt>
<wgt id='1493'> +7.8723187e+04 </wgt>
<wgt id='1494'> +7.8585334e+04 </wgt>
<wgt id='1495'> +7.6833368e+04 </wgt>
<wgt id='1496'> +7.7418017e+04 </wgt>
<wgt id='1497'> +7.8282722e+04 </wgt>
<wgt id='1498'> +7.9200420e+04 </wgt>
<wgt id='1499'> +7.8666369e+04 </wgt>
<wgt id='1500'> +7.8299463e+04 </wgt>
<wgt id='1501'> +7.7365093e+04 </wgt>
<wgt id='1502'> +7.8813662e+04 </wgt>
<wgt id='1503'> +7.7796405e+04 </wgt>
<wgt id='1504'> +7.8447745e+04 </wgt>
<wgt id='1505'> +7.8734250e+04 </wgt>
<wgt id='1506'> +7.8941716e+04 </wgt>
<wgt id='1507'> +7.7315434e+04 </wgt>
<wgt id='1508'> +7.5245511e+04 </wgt>
<wgt id='1509'> +7.7534400e+04 </wgt>
<wgt id='1510'> +7.9155990e+04 </wgt>
<wgt id='1511'> +7.8104976e+04 </wgt>
<wgt id='1512'> +7.7559301e+04 </wgt>
<wgt id='1513'> +7.8265787e+04 </wgt>
<wgt id='1514'> +7.8520001e+04 </wgt>
<wgt id='1515'> +7.8012824e+04 </wgt>
<wgt id='1516'> +7.6730432e+04 </wgt>
<wgt id='1517'> +7.9066173e+04 </wgt>
<wgt id='1518'> +7.8365335e+04 </wgt>
<wgt id='1519'> +7.8434237e+04 </wgt>
<wgt id='1520'> +7.9034977e+04 </wgt>
<wgt id='1521'> +7.6377519e+04 </wgt>
<wgt id='1522'> +7.9157032e+04 </wgt>
<wgt id='1523'> +7.9378626e+04 </wgt>
<wgt id='1524'> +7.8076822e+04 </wgt>
<wgt id='1525'> +7.8607957e+04 </wgt>
<wgt id='1526'> +7.8455290e+04 </wgt>
<wgt id='1527'> +7.8969691e+04 </wgt>
<wgt id='1528'> +7.9332841e+04 </wgt>
<wgt id='1529'> +8.0316734e+04 </wgt>
<wgt id='1530'> +7.8032114e+04 </wgt>
<wgt id='1531'> +7.7936799e+04 </wgt>
<wgt id='1532'> +7.6074979e+04 </wgt>
<wgt id='1533'> +7.9030882e+04 </wgt>
<wgt id='1534'> +7.9266128e+04 </wgt>
<wgt id='1535'> +7.7828401e+04 </wgt>
<wgt id='1536'> +7.9034024e+04 </wgt>
<wgt id='1537'> +7.8150982e+04 </wgt>
<wgt id='1538'> +8.0145154e+04 </wgt>
<wgt id='1539'> +7.8528875e+04 </wgt>
<wgt id='1540'> +7.9488243e+04 </wgt>
<wgt id='1541'> +7.8979518e+04 </wgt>
<wgt id='1542'> +7.9389288e+04 </wgt>
<wgt id='1543'> +7.8646165e+04 </wgt>
<wgt id='1544'> +8.0011739e+04 </wgt>
<wgt id='1545'> +7.8645716e+04 </wgt>
<wgt id='1546'> +7.7878946e+04 </wgt>
<wgt id='1547'> +7.9449496e+04 </wgt>
<wgt id='1548'> +7.7795378e+04 </wgt>
<wgt id='1549'> +7.9758674e+04 </wgt>
<wgt id='1550'> +8.0145357e+04 </wgt>
<wgt id='1551'> +8.0398342e+04 </wgt>
<wgt id='1552'> +7.8487214e+04 </wgt>
<wgt id='1553'> +8.0498885e+04 </wgt>
<wgt id='1554'> +7.6621722e+04 </wgt>
<wgt id='1555'> +7.8572525e+04 </wgt>
<wgt id='1556'> +7.8720489e+04 </wgt>
<wgt id='1557'> +7.7079294e+04 </wgt>
<wgt id='1558'> +7.9310201e+04 </wgt>
<wgt id='1559'> +7.9230558e+04 </wgt>
<wgt id='1560'> +7.8081090e+04 </wgt>
<wgt id='1561'> +7.8755566e+04 </wgt>
<wgt id='1562'> +7.9072784e+04 </wgt>
<wgt id='1563'> +7.8073161e+04 </wgt>
<wgt id='1564'> +7.7872086e+04 </wgt>
<wgt id='1565'> +7.7063996e+04 </wgt>
<wgt id='1566'> +7.8266530e+04 </wgt>
<wgt id='1567'> +8.0783758e+04 </wgt>
<wgt id='1568'> +7.9075900e+04 </wgt>
<wgt id='1569'> +7.9458282e+04 </wgt>
<wgt id='1570'> +8.0649367e+04 </wgt>
<wgt id='1571'> +7.9551225e+04 </wgt>
<wgt id='1572'> +7.7223782e+04 </wgt>
<wgt id='1573'> +7.8982675e+04 </wgt>
<wgt id='1574'> +7.7199144e+04 </wgt>
<wgt id='1575'> +7.5913935e+04 </wgt>
<wgt id='1576'> +7.9540670e+04 </wgt>
<wgt id='1577'> +7.5954911e+04 </wgt>
<wgt id='1578'> +7.8097167e+04 </wgt>
<wgt id='1579'> +7.7971886e+04 </wgt>
<wgt id='1580'> +7.9781724e+04 </wgt>
<wgt id='1581'> +7.8933687e+04 </wgt>
<wgt id='1582'> +7.7577588e+04 </wgt>
<wgt id='1583'> +7.7921180e+04 </wgt>
<wgt id='1584'> +7.7295400e+04 </wgt>
<wgt id='1585'> +7.4830203e+04 </wgt>
<wgt id='1586'> +6.6451859e+04 </wgt>
<wgt id='1587'> +7.2989702e+04 </wgt>
<wgt id='1588'> +7.3900948e+04 </wgt>
<wgt id='1589'> +7.4000863e+04 </wgt>
<wgt id='1590'> +7.4353202e+04 </wgt>
<wgt id='1591'> +7.4879101e+04 </wgt>
<wgt id='1592'> +7.5291912e+04 </wgt>
<wgt id='1593'> +7.6857535e+04 </wgt>
<wgt id='1594'> +7.7176649e+04 </wgt>
<wgt id='1595'> +7.7339460e+04 </wgt>
<wgt id='1596'> +7.6651151e+04 </wgt>
<wgt id='1597'> +7.6975233e+04 </wgt>
<wgt id='1598'> +7.5801614e+04 </wgt>
<wgt id='1599'> +7.7908943e+04 </wgt>
<wgt id='1600'> +7.5558167e+04 </wgt>
<wgt id='1601'> +7.8062497e+04 </wgt>
<wgt id='1602'> +7.6642751e+04 </wgt>
<wgt id='1603'> +7.7254145e+04 </wgt>
<wgt id='1604'> +7.7698491e+04 </wgt>
<wgt id='1605'> +7.6270584e+04 </wgt>
<wgt id='1606'> +7.5953245e+04 </wgt>
<wgt id='1607'> +7.7466277e+04 </wgt>
<wgt id='1608'> +7.5670394e+04 </wgt>
<wgt id='1609'> +7.7529040e+04 </wgt>
<wgt id='1610'> +7.6603220e+04 </wgt>
<wgt id='1611'> +7.6923300e+04 </wgt>
<wgt id='1612'> +7.7261570e+04 </wgt>
<wgt id='1613'> +7.5762931e+04 </wgt>
<wgt id='1614'> +7.6391681e+04 </wgt>
<wgt id='1615'> +7.7675563e+04 </wgt>
<wgt id='1616'> +7.6238450e+04 </wgt>
<wgt id='1617'> +7.7039609e+04 </wgt>
<wgt id='1618'> +7.7025312e+04 </wgt>
<wgt id='1619'> +7.6412327e+04 </wgt>
<wgt id='1620'> +7.7450649e+04 </wgt>
<wgt id='1621'> +7.6452289e+04 </wgt>
<wgt id='1622'> +7.7528327e+04 </wgt>
<wgt id='1623'> +7.6198244e+04 </wgt>
<wgt id='1624'> +7.7144823e+04 </wgt>
<wgt id='1625'> +7.5489501e+04 </wgt>
<wgt id='1626'> +7.6255108e+04 </wgt>
<wgt id='1627'> +7.7308398e+04 </wgt>
<wgt id='1628'> +7.7130313e+04 </wgt>
<wgt id='1629'> +7.7189910e+04 </wgt>
<wgt id='1630'> +7.6367924e+04 </wgt>
<wgt id='1631'> +7.6935674e+04 </wgt>
<wgt id='1632'> +7.6314621e+04 </wgt>
<wgt id='1633'> +7.7425214e+04 </wgt>
<wgt id='1634'> +7.7712574e+04 </wgt>
<wgt id='1635'> +7.6188561e+04 </wgt>
<wgt id='1636'> +7.7349392e+04 </wgt>
<wgt id='1637'> +7.7281643e+04 </wgt>
<wgt id='1638'> +7.6691560e+04 </wgt>
<wgt id='1639'> +7.6902775e+04 </wgt>
<wgt id='1640'> +7.7687547e+04 </wgt>
<wgt id='1641'> +7.6238166e+04 </wgt>
<wgt id='1642'> +7.6336728e+04 </wgt>
<wgt id='1643'> +7.7586034e+04 </wgt>
<wgt id='1644'> +7.7596999e+04 </wgt>
<wgt id='1645'> +7.5945314e+04 </wgt>
<wgt id='1646'> +7.6900955e+04 </wgt>
<wgt id='1647'> +7.7552865e+04 </wgt>
<wgt id='1648'> +7.7425635e+04 </wgt>
<wgt id='1649'> +7.7463256e+04 </wgt>
<wgt id='1650'> +7.8791381e+04 </wgt>
<wgt id='1651'> +7.5036643e+04 </wgt>
<wgt id='1652'> +7.6150836e+04 </wgt>
<wgt id='1653'> +7.6504590e+04 </wgt>
<wgt id='1654'> +7.7216008e+04 </wgt>
<wgt id='1655'> +7.7579670e+04 </wgt>
<wgt id='1656'> +7.7895112e+04 </wgt>
<wgt id='1657'> +7.8426024e+04 </wgt>
<wgt id='1658'> +7.7944900e+04 </wgt>
<wgt id='1659'> +7.7744717e+04 </wgt>
<wgt id='1660'> +7.8135742e+04 </wgt>
<wgt id='1661'> +7.8292857e+04 </wgt>
<wgt id='1662'> +7.7434569e+04 </wgt>
<wgt id='1663'> +7.7735049e+04 </wgt>
<wgt id='1664'> +7.7548535e+04 </wgt>
<wgt id='1665'> +7.6978948e+04 </wgt>
<wgt id='1666'> +7.8137350e+04 </wgt>
<wgt id='1667'> +7.7438775e+04 </wgt>
<wgt id='1668'> +7.8242923e+04 </wgt>
<wgt id='1669'> +7.8200504e+04 </wgt>
<wgt id='1670'> +7.7339977e+04 </wgt>
<wgt id='1671'> +7.7889968e+04 </wgt>
<wgt id='1672'> +7.8092406e+04 </wgt>
<wgt id='1673'> +7.9123476e+04 </wgt>
<wgt id='1674'> +7.7172286e+04 </wgt>
<wgt id='1675'> +7.8879377e+04 </wgt>
<wgt id='1676'> +7.7323727e+04 </wgt>
<wgt id='1677'> +7.7784637e+04 </wgt>
<wgt id='1678'> +7.8084038e+04 </wgt>
<wgt id='1679'> +7.7986263e+04 </wgt>
<wgt id='1680'> +7.8688981e+04 </wgt>
<wgt id='1681'> +7.7970655e+04 </wgt>
<wgt id='1682'> +7.7443224e+04 </wgt>
<wgt id='1683'> +7.7527524e+04 </wgt>
<wgt id='1684'> +7.8306716e+04 </wgt>
<wgt id='1685'> +7.9022971e+04 </wgt>
<wgt id='1686'> +7.6848979e+04 </wgt>
<wgt id='1687'> +7.8605559e+04 </wgt>
<wgt id='1688'> +7.6894905e+04 </wgt>
<wgt id='1689'> +7.7278618e+04 </wgt>
<wgt id='1690'> +7.8966140e+04 </wgt>
<wgt id='1691'> +7.8052366e+04 </wgt>
<wgt id='1692'> +7.8066811e+04 </wgt>
<wgt id='1693'> +7.8325642e+04 </wgt>
<wgt id='1694'> +7.8149805e+04 </wgt>
<wgt id='1695'> +7.7457125e+04 </wgt>
<wgt id='1696'> +7.8947969e+04 </wgt>
<wgt id='1697'> +7.8439712e+04 </wgt>
<wgt id='1698'> +7.7676852e+04 </wgt>
<wgt id='1699'> +7.7512952e+04 </wgt>
<wgt id='1700'> +7.8318885e+04 </wgt>
<wgt id='1701'> +7.7438996e+04 </wgt>
<wgt id='1702'> +7.8638458e+04 </wgt>
<wgt id='1703'> +7.8175008e+04 </wgt>
<wgt id='1704'> +7.8149845e+04 </wgt>
<wgt id='1705'> +7.7558362e+04 </wgt>
<wgt id='1706'> +7.8524237e+04 </wgt>
<wgt id='1707'> +7.6307400e+04 </wgt>
<wgt id='1708'> +7.9000910e+04 </wgt>
<wgt id='1709'> +7.7547872e+04 </wgt>
<wgt id='1710'> +7.8575144e+04 </wgt>
<wgt id='1711'> +7.7908004e+04 </wgt>
<wgt id='1712'> +7.8038533e+04 </wgt>
<wgt id='1713'> +7.9884824e+04 </wgt>
<wgt id='1714'> +7.5923976e+04 </wgt>
<wgt id='1715'> +7.5941601e+04 </wgt>
<wgt id='1716'> +7.7845775e+04 </wgt>
<wgt id='1717'> +7.3417421e+04 </wgt>
<wgt id='1718'> +7.3592698e+04 </wgt>
<wgt id='1719'> +7.3192663e+04 </wgt>
<wgt id='1720'> +7.3480909e+04 </wgt>
<wgt id='1721'> +7.3359413e+04 </wgt>
<wgt id='1722'> +7.3398720e+04 </wgt>
<wgt id='1723'> +7.3448054e+04 </wgt>
<wgt id='1724'> +7.3634629e+04 </wgt>
<wgt id='1725'> +7.3240706e+04 </wgt>
<wgt id='1726'> +7.3279552e+04 </wgt>
<wgt id='1727'> +7.3559692e+04 </wgt>
<wgt id='1728'> +7.3178768e+04 </wgt>
<wgt id='1729'> +7.3649604e+04 </wgt>
<wgt id='1730'> +7.3150869e+04 </wgt>
<wgt id='1731'> +7.3605213e+04 </wgt>
<wgt id='1732'> +7.4008250e+04 </wgt>
<wgt id='1733'> +7.4008250e+04 </wgt>
<wgt id='1734'> +7.3163519e+04 </wgt>
<wgt id='1735'> +7.3584153e+04 </wgt>
<wgt id='1736'> +7.2903797e+04 </wgt>
<wgt id='1737'> +7.4120534e+04 </wgt>
<wgt id='1738'> +7.3667665e+04 </wgt>
<wgt id='1739'> +7.2951770e+04 </wgt>
<wgt id='1740'> +7.3313361e+04 </wgt>
<wgt id='1741'> +7.3664357e+04 </wgt>
<wgt id='1742'> +7.3415750e+04 </wgt>
<wgt id='1743'> +7.3409273e+04 </wgt>
<wgt id='1744'> +7.3326064e+04 </wgt>
<wgt id='1745'> +7.3664225e+04 </wgt>
<wgt id='1746'> +7.2918819e+04 </wgt>
<wgt id='1747'> +7.3671644e+04 </wgt>
<wgt id='1748'> +7.3610027e+04 </wgt>
<wgt id='1749'> +7.2717721e+04 </wgt>
<wgt id='1750'> +7.3338187e+04 </wgt>
<wgt id='1751'> +7.3501855e+04 </wgt>
<wgt id='1752'> +7.3369803e+04 </wgt>
<wgt id='1753'> +7.3481836e+04 </wgt>
<wgt id='1754'> +7.3302921e+04 </wgt>
<wgt id='1755'> +7.3468967e+04 </wgt>
<wgt id='1756'> +7.2976989e+04 </wgt>
<wgt id='1757'> +7.4515541e+04 </wgt>
<wgt id='1758'> +7.3639033e+04 </wgt>
<wgt id='1759'> +7.2895241e+04 </wgt>
<wgt id='1760'> +7.3652139e+04 </wgt>
<wgt id='1761'> +7.3235398e+04 </wgt>
<wgt id='1762'> +7.3399479e+04 </wgt>
<wgt id='1763'> +7.3707931e+04 </wgt>
<wgt id='1764'> +7.3330633e+04 </wgt>
<wgt id='1765'> +7.3776467e+04 </wgt>
<wgt id='1766'> +7.3419504e+04 </wgt>
<wgt id='1767'> +7.3505076e+04 </wgt>
<wgt id='1768'> +7.3587739e+04 </wgt>
<wgt id='1769'> +7.3299884e+04 </wgt>
<wgt id='1770'> +7.3128726e+04 </wgt>
<wgt id='1771'> +7.3879091e+04 </wgt>
<wgt id='1772'> +7.3510962e+04 </wgt>
<wgt id='1773'> +7.3091210e+04 </wgt>
<wgt id='1774'> +7.3220154e+04 </wgt>
<wgt id='1775'> +7.3522342e+04 </wgt>
<wgt id='1776'> +7.3665819e+04 </wgt>
<wgt id='1777'> +7.3307124e+04 </wgt>
<wgt id='1778'> +7.3543761e+04 </wgt>
<wgt id='1779'> +7.3584093e+04 </wgt>
<wgt id='1780'> +7.3525794e+04 </wgt>
<wgt id='1781'> +7.3720894e+04 </wgt>
<wgt id='1782'> +7.3417421e+04 </wgt>
<wgt id='1783'> +7.3427106e+04 </wgt>
<wgt id='1784'> +7.4632304e+04 </wgt>
<wgt id='1785'> +7.4492187e+04 </wgt>
<wgt id='1786'> +7.3444332e+04 </wgt>
<wgt id='1787'> +7.4638187e+04 </wgt>
<wgt id='1788'> +7.4952352e+04 </wgt>
<wgt id='1789'> +7.4716202e+04 </wgt>
<wgt id='1790'> +7.4236615e+04 </wgt>
<wgt id='1791'> +7.4531136e+04 </wgt>
<wgt id='1792'> +7.4346897e+04 </wgt>
<wgt id='1793'> +7.4695206e+04 </wgt>
<wgt id='1794'> +7.5093488e+04 </wgt>
<wgt id='1795'> +7.3734376e+04 </wgt>
<wgt id='1796'> +7.4650229e+04 </wgt>
<wgt id='1797'> +7.4952453e+04 </wgt>
<wgt id='1798'> +7.4468495e+04 </wgt>
<wgt id='1799'> +7.5341900e+04 </wgt>
<wgt id='1800'> +7.4956271e+04 </wgt>
<wgt id='1801'> +7.5029183e+04 </wgt>
<wgt id='1802'> +7.4683339e+04 </wgt>
<wgt id='1803'> +7.4902367e+04 </wgt>
<wgt id='1804'> +7.3598440e+04 </wgt>
<wgt id='1805'> +7.4634899e+04 </wgt>
<wgt id='1806'> +7.4416685e+04 </wgt>
<wgt id='1807'> +7.4731891e+04 </wgt>
<wgt id='1808'> +7.4675267e+04 </wgt>
<wgt id='1809'> +7.3673889e+04 </wgt>
<wgt id='1810'> +7.4566292e+04 </wgt>
<wgt id='1811'> +7.4538575e+04 </wgt>
<wgt id='1812'> +7.4689322e+04 </wgt>
<wgt id='1813'> +7.4543109e+04 </wgt>
<wgt id='1814'> +7.4568805e+04 </wgt>
<wgt id='1815'> +7.4611899e+04 </wgt>
<wgt id='1816'> +7.4642423e+04 </wgt>
<wgt id='1817'> +7.4382454e+04 </wgt>
<wgt id='1818'> +7.4598988e+04 </wgt>
<wgt id='1819'> +7.4420468e+04 </wgt>
<wgt id='1820'> +7.4584399e+04 </wgt>
<wgt id='1821'> +7.4583445e+04 </wgt>
<wgt id='1822'> +7.4487428e+04 </wgt>
<wgt id='1823'> +7.4525185e+04 </wgt>
<wgt id='1824'> +7.4659958e+04 </wgt>
<wgt id='1825'> +7.3891810e+04 </wgt>
<wgt id='1826'> +7.5598652e+04 </wgt>
<wgt id='1827'> +8.3001899e+04 </wgt>
<wgt id='1828'> +8.3136046e+04 </wgt>
<wgt id='1829'> +8.2905389e+04 </wgt>
<wgt id='1830'> +8.3234050e+04 </wgt>
<wgt id='1831'> +8.2805878e+04 </wgt>
<wgt id='1832'> +8.2883739e+04 </wgt>
<wgt id='1833'> +8.3156154e+04 </wgt>
<wgt id='1834'> +8.2590902e+04 </wgt>
<wgt id='1835'> +8.3430344e+04 </wgt>
<wgt id='1836'> +8.3354771e+04 </wgt>
<wgt id='1837'> +8.2660345e+04 </wgt>
<wgt id='1838'> +8.3317171e+04 </wgt>
<wgt id='1839'> +8.2718323e+04 </wgt>
<wgt id='1840'> +8.2714042e+04 </wgt>
<wgt id='1841'> +8.3341519e+04 </wgt>
<wgt id='1842'> +8.3125207e+04 </wgt>
<wgt id='1843'> +8.3454335e+04 </wgt>
<wgt id='1844'> +8.3326368e+04 </wgt>
<wgt id='1845'> +8.2692056e+04 </wgt>
<wgt id='1846'> +8.2957640e+04 </wgt>
<wgt id='1847'> +8.3064775e+04 </wgt>
<wgt id='1848'> +8.2397643e+04 </wgt>
<wgt id='1849'> +8.3563183e+04 </wgt>
<wgt id='1850'> +8.3144660e+04 </wgt>
<wgt id='1851'> +8.2839054e+04 </wgt>
<wgt id='1852'> +8.2949307e+04 </wgt>
<wgt id='1853'> +8.2819748e+04 </wgt>
<wgt id='1854'> +8.2775871e+04 </wgt>
<wgt id='1855'> +8.3080567e+04 </wgt>
<wgt id='1856'> +7.3381065e+04 </wgt>
<wgt id='1857'> +7.3364837e+04 </wgt>
<wgt id='1858'> +7.3386066e+04 </wgt>
<wgt id='1859'> +7.3347820e+04 </wgt>
<wgt id='1860'> +7.3381402e+04 </wgt>
<wgt id='1861'> +7.3372267e+04 </wgt>
<wgt id='1862'> +7.3174575e+04 </wgt>
<wgt id='1863'> +7.3271970e+04 </wgt>
<wgt id='1864'> +7.3194067e+04 </wgt>
<wgt id='1865'> +7.3197540e+04 </wgt>
<wgt id='1866'> +7.3673674e+04 </wgt>
<wgt id='1867'> +7.3285373e+04 </wgt>
<wgt id='1868'> +7.3327107e+04 </wgt>
<wgt id='1869'> +7.3419935e+04 </wgt>
<wgt id='1870'> +7.3310507e+04 </wgt>
<wgt id='1871'> +7.3380628e+04 </wgt>
<wgt id='1872'> +7.3333779e+04 </wgt>
<wgt id='1873'> +7.3314054e+04 </wgt>
<wgt id='1874'> +7.3441015e+04 </wgt>
<wgt id='1875'> +7.3511622e+04 </wgt>
<wgt id='1876'> +7.3134119e+04 </wgt>
<wgt id='1877'> +7.3219522e+04 </wgt>
<wgt id='1878'> +7.3279544e+04 </wgt>
<wgt id='1879'> +7.3649748e+04 </wgt>
<wgt id='1880'> +7.3582903e+04 </wgt>
<wgt id='1881'> +7.3576463e+04 </wgt>
<wgt id='1882'> +7.3370729e+04 </wgt>
<wgt id='1883'> +7.3406326e+04 </wgt>
<wgt id='1884'> +7.3293178e+04 </wgt>
<wgt id='1885'> +7.2658841e+04 </wgt>
<wgt id='1886'> +6.7420792e+04 </wgt>
<wgt id='1887'> +7.5860408e+04 </wgt>
<wgt id='1888'> +6.6414095e+04 </wgt>
<wgt id='1889'> +8.1028499e+04 </wgt>
</rwgt>
</event>
<event npLO=" -1 " npNLO=" 0 ">
 5      0 +7.4519530e+04 2.49988900e+01 7.55820760e-03 1.19922560e-01
        2 -1    0    0  501    0 +0.0000000000e+00 +0.0000000000e+00 +5.4436027980e+00 5.4436027980e+00 0.0000000000e+00 0.0000e+00 -1.0000e+00
       -1 -1    0    0    0  501 +0.0000000000e+00 +0.0000000000e+00 -2.9319649637e+02 2.9319649637e+02 0.0000000000e+00 0.0000e+00 1.0000e+00
       24  2    1    2    0    0 +0.0000000000e+00 +0.0000000000e+00 -2.8775289357e+02 2.9864009916e+02 7.9901070530e+01 0.0000e+00 0.0000e+00
      -13  1    3    3    0    0 -3.7117658586e+01 +1.3083733552e+01 -1.6953860043e+02 1.7404666529e+02 0.0000000000e+00 0.0000e+00 1.0000e+00
       14  1    3    3    0    0 +3.7117658586e+01 -1.3083733552e+01 -1.1821429314e+02 1.2459343388e+02 0.0000000000e+00 0.0000e+00 -1.0000e+00
#aMCatNLO 1  0  0  2  1 0.31630849E+02 0.00000000E+00 -9  5  0 0.00000000E+00 0.00000000E+00 0.00000000E+00 0.00000000E+00 0.00000000E+00
<rwgt>
<wgt id='1001'> +7.4519530e+04 </wgt>
<wgt id='1002'> +7.7524122e+04 </wgt>
<wgt id='1003'> +7.0774562e+04 </wgt>
<wgt id='1004'> +8.1250321e+04 </wgt>
<wgt id='1005'> +8.4670049e+04 </wgt>
<wgt id='1006'> +7.6987944e+04 </wgt>
<wgt id='1007'> +6.6791482e+04 </wgt>
<wgt id='1008'> +6.9366977e+04 </wgt>
<wgt id='1009'> +6.3581322e+04 </wgt>
<wgt id='1010'> +7.4519530e+04 </wgt>
<wgt id='1011'> +7.4475672e+04 </wgt>
<wgt id='1012'> +7.4461387e+04 </wgt>
<wgt id='1013'> +7.4523865e+04 </wgt>
<wgt id='1014'> +7.4940880e+04 </wgt>
<wgt id='1015'> +7.3662758e+04 </wgt>
<wgt id='1016'> +7.4597415e+04 </wgt>
<wgt id='1017'> +7.4395725e+04 </wgt>
<wgt id='1018'> +7.3837417e+04 </wgt>
<wgt id='1019'> +7.5323733e+04 </wgt>
<wgt id='1020'> +7.4259256e+04 </wgt>
<wgt id='1021'> +7.4991535e+04 </wgt>
<wgt id='1022'> +7.4585453e+04 </wgt>
<wgt id='1023'> +7.5137063e+04 </wgt>
<wgt id='1024'> +7.4124755e+04 </wgt>
<wgt id='1025'> +7.5443549e+04 </wgt>
<wgt id='1026'> +7.4281424e+04 </wgt>
<wgt id='1027'> +7.4261164e+04 </wgt>
<wgt id='1028'> +7.3915544e+04 </wgt>
<wgt id='1029'> +7.4540933e+04 </wgt>
<wgt id='1030'> +7.4281031e+04 </wgt>
<wgt id='1031'> +7.4149864e+04 </wgt>
<wgt id='1032'> +7.4789774e+04 </wgt>
<wgt id='1033'> +7.4261841e+04 </wgt>
<wgt id='1034'> +7.3743132e+04 </wgt>
<wgt id='1035'> +7.4560944e+04 </wgt>
<wgt id='1036'> +7.4424669e+04 </wgt>
<wgt id='1037'> +7.5119661e+04 </wgt>
<wgt id='1038'> +7.4211119e+04 </wgt>
<wgt id='1039'> +7.5497189e+04 </wgt>
<wgt id='1040'> +7.5003498e+04 </wgt>
<wgt id='1041'> +7.4987969e+04 </wgt>
<wgt id='1042'> +7.4219933e+04 </wgt>
<wgt id='1043'> +7.4459530e+04 </wgt>
<wgt id='1044'> +7.4600006e+04 </wgt>
<wgt id='1045'> +7.4385140e+04 </wgt>
<wgt id='1046'> +7.4724949e+04 </wgt>
<wgt id='1047'> +7.4712516e+04 </wgt>
<wgt id='1048'> +7.4882604e+04 </wgt>
<wgt id='1049'> +7.4430462e+04 </wgt>
<wgt id='1050'> +7.4393359e+04 </wgt>
<wgt id='1051'> +7.4094185e+04 </wgt>
<wgt id='1052'> +7.4079439e+04 </wgt>
<wgt id='1053'> +7.4467998e+04 </wgt>
<wgt id='1054'> +7.4578222e+04 </wgt>
<wgt id='1055'> +7.4921194e+04 </wgt>
<wgt id='1056'> +7.4784593e+04 </wgt>
<wgt id='1057'> +7.4745596e+04 </wgt>
<wgt id='1058'> +7.4755636e+04 </wgt>
<wgt id='1059'> +7.4243457e+04 </wgt>
<wgt id='1060'> +7.4696754e+04 </wgt>
<wgt id='1061'> +7.4916519e+04 </wgt>
<wgt id='1062'> +7.4280328e+04 </wgt>
<wgt id='1063'> +7.4393716e+04 </wgt>
<wgt id='1064'> +7.4312502e+04 </wgt>
<wgt id='1065'> +7.4689192e+04 </wgt>
<wgt id='1066'> +7.4654713e+04 </wgt>
<wgt id='1067'> +7.4402977e+04 </wgt>
<wgt id='1068'> +7.4456170e+04 </wgt>
<wgt id='1069'> +7.4476780e+04 </wgt>
<wgt id='1070'> +7.4867681e+04 </wgt>
<wgt id='1071'> +7.4541585e+04 </wgt>
<wgt id='1072'> +7.4460176e+04 </wgt>
<wgt id='1073'> +7.4466475e+04 </wgt>
<wgt id='1074'> +7.4513818e+04 </wgt>
<wgt id='1075'> +7.4461244e+04 </wgt>
<wgt id='1076'> +7.4753171e+04 </wgt>
<wgt id='1077'> +7.4807286e+04 </wgt>
<wgt id='1078'> +7.4481803e+04 </wgt>
<wgt id='1079'> +7.4315169e+04 </wgt>
<wgt id='1080'> +7.4691055e+04 </wgt>
<wgt id='1081'> +7.4515816e+04 </wgt>
<wgt id='1082'> +7.4368345e+04 </wgt>
<wgt id='1083'> +7.4620204e+04 </wgt>
<wgt id='1084'> +7.4408952e+04 </wgt>
<wgt id='1085'> +7.4510464e+04 </wgt>
<wgt id='1086'> +7.4492469e+04 </wgt>
<wgt id='1087'> +7.4504923e+04 </wgt>
<wgt id='1088'> +7.4572503e+04 </wgt>
<wgt id='1089'> +7.4436731e+04 </wgt>
<wgt id='1090'> +7.4499688e+04 </wgt>
<wgt id='1091'> +7.4508002e+04 </wgt>
<wgt id='1092'> +7.4713927e+04 </wgt>
<wgt id='1093'> +7.4449459e+04 </wgt>
<wgt id='1094'> +7.4593507e+04 </wgt>
<wgt id='1095'> +7.4472763e+04 </wgt>
<wgt id='1096'> +7.4538229e+04 </wgt>
<wgt id='1097'> +7.4695395e+04 </wgt>
<wgt id='1098'> +7.4564953e+04 </wgt>
<wgt id='1099'> +7.4500494e+04 </wgt>
<wgt id='1100'> +7.4512317e+04 </wgt>
<wgt id='1101'> +7.4537660e+04 </wgt>
<wgt id='1102'> +7.4424882e+04 </wgt>
<wgt id='1103'> +7.4416665e+04 </wgt>
<wgt id='1104'> +7.4459211e+04 </wgt>
<wgt id='1105'> +7.4491238e+04 </wgt>
<wgt id='1106'> +7.4493518e+04 </wgt>
<wgt id='1107'> +7.4518574e+04 </wgt>
<wgt id='1108'> +7.4537525e+04 </wgt>
<wgt id='1109'> +7.4548188e+04 </wgt>
<wgt id='1110'> +7.4519531e+04 </wgt>
<wgt id='1111'> +7.5641240e+04 </wgt>
<wgt id='1112'> +7.4684366e+04 </wgt>
<wgt id='1113'> +7.4519531e+04 </wgt>
<wgt id='1114'> +8.3764313e+04 </wgt>
<wgt id='1115'> +7.3169805e+04 </wgt>
<wgt id='1116'> +7.8845272e+04 </wgt>
<wgt id='1117'> +7.7222492e+04 </wgt>
<wgt id='1118'> +7.1847738e+04 </wgt>
<wgt id='1119'> +7.4656075e+04 </wgt>
<wgt id='1120'> +7.2754027e+04 </wgt>
<wgt id='1121'> +7.2835669e+04 </wgt>
<wgt id='1122'> +7.1052931e+04 </wgt>
<wgt id='1123'> +7.4135098e+04 </wgt>
<wgt id='1124'> +7.5854186e+04 </wgt>
<wgt id='1125'> +7.2005075e+04 </wgt>
<wgt id='1126'> +7.4551779e+04 </wgt>
<wgt id='1127'> +7.5605924e+04 </wgt>
<wgt id='1128'> +7.2402884e+04 </wgt>
<wgt id='1129'> +7.2463130e+04 </wgt>
<wgt id='1130'> +7.7642437e+04 </wgt>
<wgt id='1131'> +7.3986480e+04 </wgt>
<wgt id='1132'> +7.6216562e+04 </wgt>
<wgt id='1133'> +7.1417691e+04 </wgt>
<wgt id='1134'> +7.4044527e+04 </wgt>
<wgt id='1135'> +7.7875405e+04 </wgt>
<wgt id='1136'> +7.4329192e+04 </wgt>
<wgt id='1137'> +7.3737853e+04 </wgt>
<wgt id='1138'> +7.1189386e+04 </wgt>
<wgt id='1139'> +7.5469937e+04 </wgt>
<wgt id='1140'> +8.5116815e+04 </wgt>
<wgt id='1141'> +7.4713802e+04 </wgt>
<wgt id='1142'> +7.3110379e+04 </wgt>
<wgt id='1143'> +7.4623807e+04 </wgt>
<wgt id='1144'> +7.7990766e+04 </wgt>
<wgt id='1145'> +7.3238922e+04 </wgt>
<wgt id='1146'> +7.8370791e+04 </wgt>
<wgt id='1147'> +7.3041074e+04 </wgt>
<wgt id='1148'> +7.6394801e+04 </wgt>
<wgt id='1149'> +7.3926359e+04 </wgt>
<wgt id='1150'> +7.4685936e+04 </wgt>
<wgt id='1151'> +7.3759111e+04 </wgt>
<wgt id='1152'> +7.2627392e+04 </wgt>
<wgt id='1153'> +7.5230690e+04 </wgt>
<wgt id='1154'> +7.7016648e+04 </wgt>
<wgt id='1155'> +7.4793715e+04 </wgt>
<wgt id='1156'> +8.0135615e+04 </wgt>
<wgt id='1157'> +7.5386793e+04 </wgt>
<wgt id='1158'> +7.3278281e+04 </wgt>
<wgt id='1159'> +7.5225974e+04 </wgt>
<wgt id='1160'> +7.4948425e+04 </wgt>
<wgt id='1161'> +7.5924796e+04 </wgt>
<wgt id='1162'> +7.3993986e+04 </wgt>
<wgt id='1163'> +7.5004819e+04 </wgt>
<wgt id='1164'> +7.3208811e+04 </wgt>
<wgt id='1165'> +7.0856686e+04 </wgt>
<wgt id='1166'> +7.5680248e+04 </wgt>
<wgt id='1167'> +7.6744558e+04 </wgt>
<wgt id='1168'> +7.9647893e+04 </wgt>
<wgt id='1169'> +7.4400195e+04 </wgt>
<wgt id='1170'> +7.5576747e+04 </wgt>
<wgt id='1171'> +7.3438531e+04 </wgt>
<wgt id='1172'> +7.2001603e+04 </wgt>
<wgt id='1173'> +7.6030914e+04 </wgt>
<wgt id='1174'> +7.6114744e+04 </wgt>
<wgt id='1175'> +7.3092821e+04 </wgt>
<wgt id='1176'> +7.7497805e+04 </wgt>
<wgt id='1177'> +7.6704108e+04 </wgt>
<wgt id='1178'> +7.6255982e+04 </wgt>
<wgt id='1179'> +7.0474139e+04 </wgt>
<wgt id='1180'> +7.8156971e+04 </wgt>
<wgt id='1181'> +7.3451453e+04 </wgt>
<wgt id='1182'> +7.1603573e+04 </wgt>
<wgt id='1183'> +7.3186095e+04 </wgt>
<wgt id='1184'> +7.4246248e+04 </wgt>
<wgt id='1185'> +7.0916121e+04 </wgt>
<wgt id='1186'> +6.7347318e+04 </wgt>
<wgt id='1187'> +7.2683697e+04 </wgt>
<wgt id='1188'> +7.0567344e+04 </wgt>
<wgt id='1189'> +7.9203606e+04 </wgt>
<wgt id='1190'> +7.4630858e+04 </wgt>
<wgt id='1191'> +7.3497262e+04 </wgt>
<wgt id='1192'> +7.2790554e+04 </wgt>
<wgt id='1193'> +7.8357952e+04 </wgt>
<wgt id='1194'> +7.7051552e+04 </wgt>
<wgt id='1195'> +7.2463130e+04 </wgt>
<wgt id='1196'> +7.5020440e+04 </wgt>
<wgt id='1197'> +7.3534860e+04 </wgt>
<wgt id='1198'> +7.3158136e+04 </wgt>
<wgt id='1199'> +7.6485647e+04 </wgt>
<wgt id='1200'> +7.2005787e+04 </wgt>
<wgt id='1201'> +7.8987911e+04 </wgt>
<wgt id='1202'> +6.4349207e+04 </wgt>
<wgt id='1203'> +7.2156399e+04 </wgt>
<wgt id='1204'> +7.4103349e+04 </wgt>
<wgt id='1205'> +6.6106821e+04 </wgt>
<wgt id='1206'> +7.1421594e+04 </wgt>
<wgt id='1207'> +7.3368599e+04 </wgt>
<wgt id='1208'> +7.4931526e+04 </wgt>
<wgt id='1209'> +7.3489991e+04 </wgt>
<wgt id='1210'> +7.8827438e+04 </wgt>
<wgt id='1211'> +7.5662453e+04 </wgt>
<wgt id='1212'> +7.5477341e+04 </wgt>
<wgt id='1213'> +7.4580568e+04 </wgt>
<wgt id='1214'> +7.4964879e+04 </wgt>
<wgt id='1215'> +7.8110731e+04 </wgt>
<wgt id='1216'> +7.7139588e+04 </wgt>
<wgt id='1217'> +7.6246620e+04 </wgt>
<wgt id='1218'> +7.6068428e+04 </wgt>
<wgt id='1219'> +7.4621236e+04 </wgt>
<wgt id='1220'> +7.4957389e+04 </wgt>
<wgt id='1221'> +7.3938175e+04 </wgt>
<wgt id='1222'> +7.3767739e+04 </wgt>
<wgt id='1223'> +7.4692568e+04 </wgt>
<wgt id='1224'> +7.4597732e+04 </wgt>
<wgt id='1225'> +7.4730743e+04 </wgt>
<wgt id='1226'> +7.4546382e+04 </wgt>
<wgt id='1227'> +7.5418013e+04 </wgt>
<wgt id='1228'> +7.4453660e+04 </wgt>
<wgt id='1229'> +7.4497842e+04 </wgt>
<wgt id='1230'> +7.4373316e+04 </wgt>
<wgt id='1231'> +7.4173870e+04 </wgt>
<wgt id='1232'> +7.4618526e+04 </wgt>
<wgt id='1233'> +7.4027926e+04 </wgt>
<wgt id='1234'> +7.4731502e+04 </wgt>
<wgt id='1235'> +7.4894886e+04 </wgt>
<wgt id='1236'> +7.4710597e+04 </wgt>
<wgt id='1237'> +7.5210455e+04 </wgt>
<wgt id='1238'> +7.4191304e+04 </wgt>
<wgt id='1239'> +7.4683866e+04 </wgt>
<wgt id='1240'> +7.4571871e+04 </wgt>
<wgt id='1241'> +7.4808881e+04 </wgt>
<wgt id='1242'> +7.4712649e+04 </wgt>
<wgt id='1243'> +7.4649778e+04 </wgt>
<wgt id='1244'> +7.4985425e+04 </wgt>
<wgt id='1245'> +7.4805502e+04 </wgt>
<wgt id='1246'> +7.5017124e+04 </wgt>
<wgt id='1247'> +7.4672914e+04 </wgt>
<wgt id='1248'> +7.4389735e+04 </wgt>
<wgt id='1249'> +7.4456487e+04 </wgt>
<wgt id='1250'> +7.5301733e+04 </wgt>
<wgt id='1251'> +7.4612073e+04 </wgt>
<wgt id='1252'> +7.4940443e+04 </wgt>
<wgt id='1253'> +7.4928112e+04 </wgt>
<wgt id='1254'> +7.5244879e+04 </wgt>
<wgt id='1255'> +7.3943931e+04 </wgt>
<wgt id='1256'> +7.4958595e+04 </wgt>
<wgt id='1257'> +7.4764516e+04 </wgt>
<wgt id='1258'> +7.4188158e+04 </wgt>
<wgt id='1259'> +7.3946612e+04 </wgt>
<wgt id='1260'> +7.4627779e+04 </wgt>
<wgt id='1261'> +7.4093276e+04 </wgt>
<wgt id='1262'> +7.4474766e+04 </wgt>
<wgt id='1263'> +7.4601737e+04 </wgt>
<wgt id='1264'> +7.4076071e+04 </wgt>
<wgt id='1265'> +7.4639204e+04 </wgt>
<wgt id='1266'> +7.5285896e+04 </wgt>
<wgt id='1267'> +7.4336519e+04 </wgt>
<wgt id='1268'> +7.4613687e+04 </wgt>
<wgt id='1269'> +7.4419808e+04 </wgt>
<wgt id='1270'> +7.4953482e+04 </wgt>
<wgt id='1271'> +7.4969261e+04 </wgt>
<wgt id='1272'> +7.4590973e+04 </wgt>
<wgt id='1273'> +7.5081888e+04 </wgt>
<wgt id='1274'> +7.4994954e+04 </wgt>
<wgt id='1275'> +7.4742742e+04 </wgt>
<wgt id='1276'> +7.4661453e+04 </wgt>
<wgt id='1277'> +7.4925772e+04 </wgt>
<wgt id='1278'> +7.4681577e+04 </wgt>
<wgt id='1279'> +7.4624202e+04 </wgt>
<wgt id='1280'> +7.4476697e+04 </wgt>
<wgt id='1281'> +7.4411734e+04 </wgt>
<wgt id='1282'> +7.4761020e+04 </wgt>
<wgt id='1283'> +7.4796293e+04 </wgt>
<wgt id='1284'> +7.4831484e+04 </wgt>
<wgt id='1285'> +7.4802601e+04 </wgt>
<wgt id='1286'> +7.4845879e+04 </wgt>
<wgt id='1287'> +7.4675791e+04 </wgt>
<wgt id='1288'> +7.4706325e+04 </wgt>
<wgt id='1289'> +7.4748387e+04 </wgt>
<wgt id='1290'> +7.4802034e+04 </wgt>
<wgt id='1291'> +7.4698325e+04 </wgt>
<wgt id='1292'> +7.4604577e+04 </wgt>
<wgt id='1293'> +7.4825271e+04 </wgt>
<wgt id='1294'> +7.4619905e+04 </wgt>
<wgt id='1295'> +7.4877003e+04 </wgt>
<wgt id='1296'> +7.4568937e+04 </wgt>
<wgt id='1297'> +7.4628266e+04 </wgt>
<wgt id='1298'> +7.4765728e+04 </wgt>
<wgt id='1299'> +7.4550916e+04 </wgt>
<wgt id='1300'> +7.4778939e+04 </wgt>
<wgt id='1301'> +7.4813814e+04 </wgt>
<wgt id='1302'> +7.4757683e+04 </wgt>
<wgt id='1303'> +7.4552964e+04 </wgt>
<wgt id='1304'> +7.4719082e+04 </wgt>
<wgt id='1305'> +7.4755103e+04 </wgt>
<wgt id='1306'> +7.4733445e+04 </wgt>
<wgt id='1307'> +7.4763470e+04 </wgt>
<wgt id='1308'> +7.4689144e+04 </wgt>
<wgt id='1309'> +7.4621225e+04 </wgt>
<wgt id='1310'> +7.4639571e+04 </wgt>
<wgt id='1311'> +7.4645689e+04 </wgt>
<wgt id='1312'> +7.4870418e+04 </wgt>
<wgt id='1313'> +7.4729346e+04 </wgt>
<wgt id='1314'> +7.4708521e+04 </wgt>
<wgt id='1315'> +7.4735142e+04 </wgt>
<wgt id='1316'> +7.4688602e+04 </wgt>
<wgt id='1317'> +7.4796573e+04 </wgt>
<wgt id='1318'> +7.4754719e+04 </wgt>
<wgt id='1319'> +7.4736267e+04 </wgt>
<wgt id='1320'> +7.4633461e+04 </wgt>
<wgt id='1321'> +7.4670242e+04 </wgt>
<wgt id='1322'> +7.4815572e+04 </wgt>
<wgt id='1323'> +7.4841830e+04 </wgt>
<wgt id='1324'> +7.5591103e+04 </wgt>
<wgt id='1325'> +7.4473757e+04 </wgt>
<wgt id='1326'> +7.1153466e+04 </wgt>
<wgt id='1327'> +6.9320488e+04 </wgt>
<wgt id='1328'> +7.5228854e+04 </wgt>
<wgt id='1329'> +7.5471253e+04 </wgt>
<wgt id='1330'> +7.6264753e+04 </wgt>
<wgt id='1331'> +7.3074555e+04 </wgt>
<wgt id='1332'> +7.8965495e+04 </wgt>
<wgt id='1333'> +7.8710559e+04 </wgt>
<wgt id='1334'> +7.6096887e+04 </wgt>
<wgt id='1335'> +7.6266497e+04 </wgt>
<wgt id='1336'> +7.8345365e+04 </wgt>
<wgt id='1337'> +7.5365477e+04 </wgt>
<wgt id='1338'> +7.2022937e+04 </wgt>
<wgt id='1339'> +7.2730567e+04 </wgt>
<wgt id='1340'> +7.7377990e+04 </wgt>
<wgt id='1341'> +7.4872491e+04 </wgt>
<wgt id='1342'> +7.6723378e+04 </wgt>
<wgt id='1343'> +7.5467717e+04 </wgt>
<wgt id='1344'> +7.7965182e+04 </wgt>
<wgt id='1345'> +7.1943236e+04 </wgt>
<wgt id='1346'> +7.4110437e+04 </wgt>
<wgt id='1347'> +7.4364840e+04 </wgt>
<wgt id='1348'> +7.7060614e+04 </wgt>
<wgt id='1349'> +7.4181804e+04 </wgt>
<wgt id='1350'> +7.5771316e+04 </wgt>
<wgt id='1351'> +7.4279782e+04 </wgt>
<wgt id='1352'> +7.2896494e+04 </wgt>
<wgt id='1353'> +7.6526253e+04 </wgt>
<wgt id='1354'> +7.2658137e+04 </wgt>
<wgt id='1355'> +7.5687675e+04 </wgt>
<wgt id='1356'> +7.6149332e+04 </wgt>
<wgt id='1357'> +7.4917735e+04 </wgt>
<wgt id='1358'> +7.3863430e+04 </wgt>
<wgt id='1359'> +7.4364309e+04 </wgt>
<wgt id='1360'> +7.4718257e+04 </wgt>
<wgt id='1361'> +7.7430069e+04 </wgt>
<wgt id='1362'> +7.1819897e+04 </wgt>
<wgt id='1363'> +7.4583973e+04 </wgt>
<wgt id='1364'> +7.4697620e+04 </wgt>
<wgt id='1365'> +7.6132333e+04 </wgt>
<wgt id='1366'> +7.6908726e+04 </wgt>
<wgt id='1367'> +7.4483610e+04 </wgt>
<wgt id='1368'> +7.2585742e+04 </wgt>
<wgt id='1369'> +7.9303259e+04 </wgt>
<wgt id='1370'> +7.3987565e+04 </wgt>
<wgt id='1371'> +7.7178734e+04 </wgt>
<wgt id='1372'> +7.6643853e+04 </wgt>
<wgt id='1373'> +7.3767003e+04 </wgt>
<wgt id='1374'> +7.5207297e+04 </wgt>
<wgt id='1375'> +7.4577544e+04 </wgt>
<wgt id='1376'> +7.1218772e+04 </wgt>
<wgt id='1377'> +7.4976642e+04 </wgt>
<wgt id='1378'> +7.6432989e+04 </wgt>
<wgt id='1379'> +7.4835435e+04 </wgt>
<wgt id='1380'> +7.7588512e+04 </wgt>
<wgt id='1381'> +7.4091665e+04 </wgt>
<wgt id='1382'> +7.5128039e+04 </wgt>
<wgt id='1383'> +7.3543005e+04 </wgt>
<wgt id='1384'> +7.5276368e+04 </wgt>
<wgt id='1385'> +7.5603324e+04 </wgt>
<wgt id='1386'> +7.5675817e+04 </wgt>
<wgt id='1387'> +7.7725482e+04 </wgt>
<wgt id='1388'> +7.5206823e+04 </wgt>
<wgt id='1389'> +7.5786347e+04 </wgt>
<wgt id='1390'> +7.4096459e+04 </wgt>
<wgt id='1391'> +7.2880592e+04 </wgt>
<wgt id='1392'> +7.1854931e+04 </wgt>
<wgt id='1393'> +7.7433979e+04 </wgt>
<wgt id='1394'> +7.6132333e+04 </wgt>
<wgt id='1395'> +7.3958541e+04 </wgt>
<wgt id='1396'> +7.7291518e+04 </wgt>
<wgt id='1397'> +7.6695809e+04 </wgt>
<wgt id='1398'> +7.3939829e+04 </wgt>
<wgt id='1399'> +7.1860920e+04 </wgt>
<wgt id='1400'> +7.3531888e+04 </wgt>
<wgt id='1401'> +7.2689841e+04 </wgt>
<wgt id='1402'> +7.6126381e+04 </wgt>
<wgt id='1403'> +7.6015290e+04 </wgt>
<wgt id='1404'> +7.3755856e+04 </wgt>
<wgt id='1405'> +7.9848950e+04 </wgt>
<wgt id='1406'> +7.7050545e+04 </wgt>
<wgt id='1407'> +7.3651824e+04 </wgt>
<wgt id='1408'> +7.6817522e+04 </wgt>
<wgt id='1409'> +7.4839064e+04 </wgt>
<wgt id='1410'> +7.6192317e+04 </wgt>
<wgt id='1411'> +7.2712202e+04 </wgt>
<wgt id='1412'> +7.5196242e+04 </wgt>
<wgt id='1413'> +7.6112863e+04 </wgt>
<wgt id='1414'> +7.4370895e+04 </wgt>
<wgt id='1415'> +7.5783481e+04 </wgt>
<wgt id='1416'> +7.5069382e+04 </wgt>
<wgt id='1417'> +7.7119510e+04 </wgt>
<wgt id='1418'> +7.6414959e+04 </wgt>
<wgt id='1419'> +7.4602620e+04 </wgt>
<wgt id='1420'> +7.6979510e+04 </wgt>
<wgt id='1421'> +7.4541157e+04 </wgt>
<wgt id='1422'> +7.4534490e+04 </wgt>
<wgt id='1423'> +7.3796122e+04 </wgt>
<wgt id='1424'> +7.3640755e+04 </wgt>
<wgt id='1425'> +7.8193777e+04 </wgt>
<wgt id='1426'> +7.5154987e+04 </wgt>
<wgt id='1427'> +7.3601804e+04 </wgt>
<wgt id='1428'> +7.6736349e+04 </wgt>
<wgt id='1429'> +7.6486628e+04 </wgt>
<wgt id='1430'> +7.4451874e+04 </wgt>
<wgt id='1431'> +7.5334301e+04 </wgt>
<wgt id='1432'> +7.5049835e+04 </wgt>
<wgt id='1433'> +7.5454572e+04 </wgt>
<wgt id='1434'> +7.5396235e+04 </wgt>
<wgt id='1435'> +7.5636284e+04 </wgt>
<wgt id='1436'> +7.4757345e+04 </wgt>
<wgt id='1437'> +7.5542309e+04 </wgt>
<wgt id='1438'> +7.5212665e+04 </wgt>
<wgt id='1439'> +7.5803822e+04 </wgt>
<wgt id='1440'> +7.5114817e+04 </wgt>
<wgt id='1441'> +7.5082689e+04 </wgt>
<wgt id='1442'> +7.4552080e+04 </wgt>
<wgt id='1443'> +7.4981018e+04 </wgt>
<wgt id='1444'> +7.5787715e+04 </wgt>
<wgt id='1445'> +7.5138586e+04 </wgt>
<wgt id='1446'> +7.5505039e+04 </wgt>
<wgt id='1447'> +7.6144439e+04 </wgt>
<wgt id='1448'> +7.5865625e+04 </wgt>
<wgt id='1449'> +7.5013380e+04 </wgt>
<wgt id='1450'> +7.5808386e+04 </wgt>
<wgt id='1451'> +7.5204057e+04 </wgt>
<wgt id='1452'> +7.5440379e+04 </wgt>
<wgt id='1453'> +7.5052427e+04 </wgt>
<wgt id='1454'> +7.5508707e+04 </wgt>
<wgt id='1455'> +7.5506176e+04 </wgt>
<wgt id='1456'> +7.5281323e+04 </wgt>
<wgt id='1457'> +7.5292209e+04 </wgt>
<wgt id='1458'> +7.5171872e+04 </wgt>
<wgt id='1459'> +7.5656807e+04 </wgt>
<wgt id='1460'> +7.5343985e+04 </wgt>
<wgt id='1461'> +7.5435005e+04 </wgt>
<wgt id='1462'> +7.5307788e+04 </wgt>
<wgt id='1463'> +7.5397324e+04 </wgt>
<wgt id='1464'> +7.5232850e+04 </wgt>
<wgt id='1465'> +7.5418713e+04 </wgt>
<wgt id='1466'> +7.5169781e+04 </wgt>
<wgt id='1467'> +7.5345548e+04 </wgt>
<wgt id='1468'> +7.5383135e+04 </wgt>
<wgt id='1469'> +7.5290616e+04 </wgt>
<wgt id='1470'> +7.5296692e+04 </wgt>
<wgt id='1471'> +7.5241365e+04 </wgt>
<wgt id='1472'> +7.5367594e+04 </wgt>
<wgt id='1473'> +7.5389409e+04 </wgt>
<wgt id='1474'> +7.5367785e+04 </wgt>
<wgt id='1475'> +7.5338043e+04 </wgt>
<wgt id='1476'> +7.5307162e+04 </wgt>
<wgt id='1477'> +7.5317085e+04 </wgt>
<wgt id='1478'> +7.5294953e+04 </wgt>
<wgt id='1479'> +7.5255988e+04 </wgt>
<wgt id='1480'> +7.5362896e+04 </wgt>
<wgt id='1481'> +7.5360541e+04 </wgt>
<wgt id='1482'> +7.6486628e+04 </wgt>
<wgt id='1483'> +7.4451874e+04 </wgt>
<wgt id='1484'> +7.3912625e+04 </wgt>
<wgt id='1485'> +7.2057222e+04 </wgt>
<wgt id='1486'> +7.5461459e+04 </wgt>
<wgt id='1487'> +7.4397199e+04 </wgt>
<wgt id='1488'> +7.3065494e+04 </wgt>
<wgt id='1489'> +7.0656035e+04 </wgt>
<wgt id='1490'> +7.7761212e+04 </wgt>
<wgt id='1491'> +7.4641347e+04 </wgt>
<wgt id='1492'> +7.2179014e+04 </wgt>
<wgt id='1493'> +7.4051791e+04 </wgt>
<wgt id='1494'> +7.4753032e+04 </wgt>
<wgt id='1495'> +7.2093855e+04 </wgt>
<wgt id='1496'> +7.1661025e+04 </wgt>
<wgt id='1497'> +7.2770587e+04 </wgt>
<wgt id='1498'> +7.5357299e+04 </wgt>
<wgt id='1499'> +7.3068627e+04 </wgt>
<wgt id='1500'> +7.6866683e+04 </wgt>
<wgt id='1501'> +7.5467754e+04 </wgt>
<wgt id='1502'> +7.2963156e+04 </wgt>
<wgt id='1503'> +7.2844350e+04 </wgt>
<wgt id='1504'> +7.5283363e+04 </wgt>
<wgt id='1505'> +7.5284506e+04 </wgt>
<wgt id='1506'> +7.4502519e+04 </wgt>
<wgt id='1507'> +7.2476902e+04 </wgt>
<wgt id='1508'> +7.3037683e+04 </wgt>
<wgt id='1509'> +7.4893208e+04 </wgt>
<wgt id='1510'> +7.2954249e+04 </wgt>
<wgt id='1511'> +7.6057401e+04 </wgt>
<wgt id='1512'> +7.5309005e+04 </wgt>
<wgt id='1513'> +7.2711491e+04 </wgt>
<wgt id='1514'> +6.9221308e+04 </wgt>
<wgt id='1515'> +7.5314986e+04 </wgt>
<wgt id='1516'> +7.4867122e+04 </wgt>
<wgt id='1517'> +7.5693189e+04 </wgt>
<wgt id='1518'> +7.3722015e+04 </wgt>
<wgt id='1519'> +7.3709750e+04 </wgt>
<wgt id='1520'> +7.7047450e+04 </wgt>
<wgt id='1521'> +7.6411604e+04 </wgt>
<wgt id='1522'> +7.4257040e+04 </wgt>
<wgt id='1523'> +7.2087824e+04 </wgt>
<wgt id='1524'> +7.5241409e+04 </wgt>
<wgt id='1525'> +7.4508250e+04 </wgt>
<wgt id='1526'> +7.3181374e+04 </wgt>
<wgt id='1527'> +7.5372824e+04 </wgt>
<wgt id='1528'> +7.2978228e+04 </wgt>
<wgt id='1529'> +7.2424821e+04 </wgt>
<wgt id='1530'> +7.2982421e+04 </wgt>
<wgt id='1531'> +7.2889280e+04 </wgt>
<wgt id='1532'> +7.6988260e+04 </wgt>
<wgt id='1533'> +7.7129145e+04 </wgt>
<wgt id='1534'> +7.3136645e+04 </wgt>
<wgt id='1535'> +7.3881868e+04 </wgt>
<wgt id='1536'> +7.5918066e+04 </wgt>
<wgt id='1537'> +7.4935600e+04 </wgt>
<wgt id='1538'> +6.8524496e+04 </wgt>
<wgt id='1539'> +7.1847567e+04 </wgt>
<wgt id='1540'> +7.2856917e+04 </wgt>
<wgt id='1541'> +7.5136601e+04 </wgt>
<wgt id='1542'> +7.3250402e+04 </wgt>
<wgt id='1543'> +7.2399068e+04 </wgt>
<wgt id='1544'> +7.3390723e+04 </wgt>
<wgt id='1545'> +7.5775960e+04 </wgt>
<wgt id='1546'> +7.4425286e+04 </wgt>
<wgt id='1547'> +7.2419255e+04 </wgt>
<wgt id='1548'> +7.4250195e+04 </wgt>
<wgt id='1549'> +7.2082893e+04 </wgt>
<wgt id='1550'> +7.2720404e+04 </wgt>
<wgt id='1551'> +7.4364980e+04 </wgt>
<wgt id='1552'> +7.4936048e+04 </wgt>
<wgt id='1553'> +7.4419705e+04 </wgt>
<wgt id='1554'> +7.8228750e+04 </wgt>
<wgt id='1555'> +7.1376866e+04 </wgt>
<wgt id='1556'> +7.0708348e+04 </wgt>
<wgt id='1557'> +7.2603132e+04 </wgt>
<wgt id='1558'> +7.3679354e+04 </wgt>
<wgt id='1559'> +7.2285371e+04 </wgt>
<wgt id='1560'> +7.5591738e+04 </wgt>
<wgt id='1561'> +7.2802268e+04 </wgt>
<wgt id='1562'> +7.3166065e+04 </wgt>
<wgt id='1563'> +7.1466527e+04 </wgt>
<wgt id='1564'> +7.6748326e+04 </wgt>
<wgt id='1565'> +7.6757229e+04 </wgt>
<wgt id='1566'> +7.5312382e+04 </wgt>
<wgt id='1567'> +7.5176448e+04 </wgt>
<wgt id='1568'> +7.4084150e+04 </wgt>
<wgt id='1569'> +7.2628752e+04 </wgt>
<wgt id='1570'> +7.6373730e+04 </wgt>
<wgt id='1571'> +7.2237660e+04 </wgt>
<wgt id='1572'> +7.2944000e+04 </wgt>
<wgt id='1573'> +7.3650828e+04 </wgt>
<wgt id='1574'> +7.2155684e+04 </wgt>
<wgt id='1575'> +7.4286357e+04 </wgt>
<wgt id='1576'> +7.4300029e+04 </wgt>
<wgt id='1577'> +7.2896468e+04 </wgt>
<wgt id='1578'> +7.4690843e+04 </wgt>
<wgt id='1579'> +7.2288624e+04 </wgt>
<wgt id='1580'> +7.2296996e+04 </wgt>
<wgt id='1581'> +7.4824407e+04 </wgt>
<wgt id='1582'> +7.5071801e+04 </wgt>
<wgt id='1583'> +7.5574258e+04 </wgt>
<wgt id='1584'> +7.3802313e+04 </wgt>
<wgt id='1585'> +7.6504510e+04 </wgt>
<wgt id='1586'> +7.3790863e+04 </wgt>
<wgt id='1587'> +7.7456196e+04 </wgt>
<wgt id='1588'> +7.6486628e+04 </wgt>
<wgt id='1589'> +7.5689990e+04 </wgt>
<wgt id='1590'> +7.5173118e+04 </wgt>
<wgt id='1591'> +7.4451874e+04 </wgt>
<wgt id='1592'> +7.3819555e+04 </wgt>
<wgt id='1593'> +7.1511614e+04 </wgt>
<wgt id='1594'> +7.0490693e+04 </wgt>
<wgt id='1595'> +6.9654077e+04 </wgt>
<wgt id='1596'> +7.0573691e+04 </wgt>
<wgt id='1597'> +7.2518820e+04 </wgt>
<wgt id='1598'> +6.9498292e+04 </wgt>
<wgt id='1599'> +7.3011704e+04 </wgt>
<wgt id='1600'> +7.0378826e+04 </wgt>
<wgt id='1601'> +7.2228598e+04 </wgt>
<wgt id='1602'> +6.8142290e+04 </wgt>
<wgt id='1603'> +7.4354624e+04 </wgt>
<wgt id='1604'> +7.1107366e+04 </wgt>
<wgt id='1605'> +7.2775821e+04 </wgt>
<wgt id='1606'> +7.1411405e+04 </wgt>
<wgt id='1607'> +7.0758368e+04 </wgt>
<wgt id='1608'> +7.1358174e+04 </wgt>
<wgt id='1609'> +7.0709972e+04 </wgt>
<wgt id='1610'> +7.3184410e+04 </wgt>
<wgt id='1611'> +6.9505350e+04 </wgt>
<wgt id='1612'> +7.2120083e+04 </wgt>
<wgt id='1613'> +6.9214345e+04 </wgt>
<wgt id='1614'> +7.2003589e+04 </wgt>
<wgt id='1615'> +7.0691049e+04 </wgt>
<wgt id='1616'> +7.1818610e+04 </wgt>
<wgt id='1617'> +7.0309628e+04 </wgt>
<wgt id='1618'> +7.0732749e+04 </wgt>
<wgt id='1619'> +7.3599775e+04 </wgt>
<wgt id='1620'> +7.1426001e+04 </wgt>
<wgt id='1621'> +7.1355252e+04 </wgt>
<wgt id='1622'> +7.0785250e+04 </wgt>
<wgt id='1623'> +7.0844724e+04 </wgt>
<wgt id='1624'> +7.0937041e+04 </wgt>
<wgt id='1625'> +7.1763016e+04 </wgt>
<wgt id='1626'> +6.9920862e+04 </wgt>
<wgt id='1627'> +7.2532106e+04 </wgt>
<wgt id='1628'> +7.1721955e+04 </wgt>
<wgt id='1629'> +7.1330238e+04 </wgt>
<wgt id='1630'> +7.1340562e+04 </wgt>
<wgt id='1631'> +7.0883388e+04 </wgt>
<wgt id='1632'> +7.0805282e+04 </wgt>
<wgt id='1633'> +7.1570372e+04 </wgt>
<wgt id='1634'> +7.1985706e+04 </wgt>
<wgt id='1635'> +7.0687643e+04 </wgt>
<wgt id='1636'> +7.1397252e+04 </wgt>
<wgt id='1637'> +7.1432218e+04 </wgt>
<wgt id='1638'> +7.2569125e+04 </wgt>
<wgt id='1639'> +7.0904418e+04 </wgt>
<wgt id='1640'> +7.2144170e+04 </wgt>
<wgt id='1641'> +7.0462572e+04 </wgt>
<wgt id='1642'> +7.0631153e+04 </wgt>
<wgt id='1643'> +7.2005862e+04 </wgt>
<wgt id='1644'> +7.3352549e+04 </wgt>
<wgt id='1645'> +6.8591544e+04 </wgt>
<wgt id='1646'> +7.0922990e+04 </wgt>
<wgt id='1647'> +7.2167940e+04 </wgt>
<wgt id='1648'> +7.1058426e+04 </wgt>
<wgt id='1649'> +7.1374216e+04 </wgt>
<wgt id='1650'> +7.1908758e+04 </wgt>
<wgt id='1651'> +7.0856019e+04 </wgt>
<wgt id='1652'> +7.1575755e+04 </wgt>
<wgt id='1653'> +7.1531003e+04 </wgt>
<wgt id='1654'> +7.1526069e+04 </wgt>
<wgt id='1655'> +7.1570119e+04 </wgt>
<wgt id='1656'> +7.3114860e+04 </wgt>
<wgt id='1657'> +7.1149100e+04 </wgt>
<wgt id='1658'> +7.2731718e+04 </wgt>
<wgt id='1659'> +7.4214092e+04 </wgt>
<wgt id='1660'> +7.2149740e+04 </wgt>
<wgt id='1661'> +7.3490634e+04 </wgt>
<wgt id='1662'> +7.2178179e+04 </wgt>
<wgt id='1663'> +7.2370784e+04 </wgt>
<wgt id='1664'> +7.1959640e+04 </wgt>
<wgt id='1665'> +7.3168345e+04 </wgt>
<wgt id='1666'> +7.2405304e+04 </wgt>
<wgt id='1667'> +7.4043411e+04 </wgt>
<wgt id='1668'> +7.2210476e+04 </wgt>
<wgt id='1669'> +7.2827288e+04 </wgt>
<wgt id='1670'> +7.2944276e+04 </wgt>
<wgt id='1671'> +7.3454683e+04 </wgt>
<wgt id='1672'> +7.2620298e+04 </wgt>
<wgt id='1673'> +7.0577140e+04 </wgt>
<wgt id='1674'> +7.4582801e+04 </wgt>
<wgt id='1675'> +7.4405925e+04 </wgt>
<wgt id='1676'> +7.1640328e+04 </wgt>
<wgt id='1677'> +7.2328882e+04 </wgt>
<wgt id='1678'> +7.3744628e+04 </wgt>
<wgt id='1679'> +7.0989325e+04 </wgt>
<wgt id='1680'> +7.5479367e+04 </wgt>
<wgt id='1681'> +7.3869663e+04 </wgt>
<wgt id='1682'> +7.1663535e+04 </wgt>
<wgt id='1683'> +7.2554081e+04 </wgt>
<wgt id='1684'> +7.3466099e+04 </wgt>
<wgt id='1685'> +7.3554669e+04 </wgt>
<wgt id='1686'> +7.1941451e+04 </wgt>
<wgt id='1687'> +7.3476517e+04 </wgt>
<wgt id='1688'> +7.1918052e+04 </wgt>
<wgt id='1689'> +7.3405034e+04 </wgt>
<wgt id='1690'> +7.2821186e+04 </wgt>
<wgt id='1691'> +7.3689265e+04 </wgt>
<wgt id='1692'> +7.1891695e+04 </wgt>
<wgt id='1693'> +7.5027956e+04 </wgt>
<wgt id='1694'> +7.1659012e+04 </wgt>
<wgt id='1695'> +7.2232283e+04 </wgt>
<wgt id='1696'> +7.3169736e+04 </wgt>
<wgt id='1697'> +7.3563317e+04 </wgt>
<wgt id='1698'> +7.2228825e+04 </wgt>
<wgt id='1699'> +7.0868845e+04 </wgt>
<wgt id='1700'> +7.5965278e+04 </wgt>
<wgt id='1701'> +7.2032779e+04 </wgt>
<wgt id='1702'> +7.4296627e+04 </wgt>
<wgt id='1703'> +7.4332450e+04 </wgt>
<wgt id='1704'> +7.2179010e+04 </wgt>
<wgt id='1705'> +7.3250222e+04 </wgt>
<wgt id='1706'> +7.2883580e+04 </wgt>
<wgt id='1707'> +7.1890908e+04 </wgt>
<wgt id='1708'> +7.3924574e+04 </wgt>
<wgt id='1709'> +7.3555593e+04 </wgt>
<wgt id='1710'> +7.2713692e+04 </wgt>
<wgt id='1711'> +7.2223645e+04 </wgt>
<wgt id='1712'> +7.2962729e+04 </wgt>
<wgt id='1713'> +7.2998356e+04 </wgt>
<wgt id='1714'> +7.2888146e+04 </wgt>
<wgt id='1715'> +6.9389439e+04 </wgt>
<wgt id='1716'> +7.3188769e+04 </wgt>
<wgt id='1717'> +7.2517973e+04 </wgt>
<wgt id='1718'> +7.2242007e+04 </wgt>
<wgt id='1719'> +7.2867653e+04 </wgt>
<wgt id='1720'> +7.2418813e+04 </wgt>
<wgt id='1721'> +7.2608622e+04 </wgt>
<wgt id='1722'> +7.2458678e+04 </wgt>
<wgt id='1723'> +7.2615002e+04 </wgt>
<wgt id='1724'> +7.2974370e+04 </wgt>
<wgt id='1725'> +7.2147507e+04 </wgt>
<wgt id='1726'> +7.2495747e+04 </wgt>
<wgt id='1727'> +7.2540017e+04 </wgt>
<wgt id='1728'> +7.1126386e+04 </wgt>
<wgt id='1729'> +7.3875991e+04 </wgt>
<wgt id='1730'> +7.2971704e+04 </wgt>
<wgt id='1731'> +7.2195261e+04 </wgt>
<wgt id='1732'> +7.3179064e+04 </wgt>
<wgt id='1733'> +7.3179064e+04 </wgt>
<wgt id='1734'> +7.2226719e+04 </wgt>
<wgt id='1735'> +7.2713161e+04 </wgt>
<wgt id='1736'> +7.2005774e+04 </wgt>
<wgt id='1737'> +7.3230521e+04 </wgt>
<wgt id='1738'> +7.2732129e+04 </wgt>
<wgt id='1739'> +7.2088250e+04 </wgt>
<wgt id='1740'> +7.2417945e+04 </wgt>
<wgt id='1741'> +7.2755702e+04 </wgt>
<wgt id='1742'> +7.2279702e+04 </wgt>
<wgt id='1743'> +7.2787782e+04 </wgt>
<wgt id='1744'> +7.2804301e+04 </wgt>
<wgt id='1745'> +7.1733940e+04 </wgt>
<wgt id='1746'> +7.2837422e+04 </wgt>
<wgt id='1747'> +7.2310606e+04 </wgt>
<wgt id='1748'> +7.3069321e+04 </wgt>
<wgt id='1749'> +7.0832043e+04 </wgt>
<wgt id='1750'> +7.3007252e+04 </wgt>
<wgt id='1751'> +7.1996513e+04 </wgt>
<wgt id='1752'> +7.2588544e+04 </wgt>
<wgt id='1753'> +7.2429737e+04 </wgt>
<wgt id='1754'> +7.2102156e+04 </wgt>
<wgt id='1755'> +7.2753025e+04 </wgt>
<wgt id='1756'> +7.2878070e+04 </wgt>
<wgt id='1757'> +7.1654976e+04 </wgt>
<wgt id='1758'> +7.2399493e+04 </wgt>
<wgt id='1759'> +7.2508424e+04 </wgt>
<wgt id='1760'> +7.1720476e+04 </wgt>
<wgt id='1761'> +7.3337852e+04 </wgt>
<wgt id='1762'> +7.2481007e+04 </wgt>
<wgt id='1763'> +7.2377106e+04 </wgt>
<wgt id='1764'> +7.2502168e+04 </wgt>
<wgt id='1765'> +7.2545730e+04 </wgt>
<wgt id='1766'> +7.2872962e+04 </wgt>
<wgt id='1767'> +7.2083628e+04 </wgt>
<wgt id='1768'> +7.2616326e+04 </wgt>
<wgt id='1769'> +7.2426155e+04 </wgt>
<wgt id='1770'> +7.2011738e+04 </wgt>
<wgt id='1771'> +7.3040493e+04 </wgt>
<wgt id='1772'> +7.2299915e+04 </wgt>
<wgt id='1773'> +7.3091954e+04 </wgt>
<wgt id='1774'> +7.1680845e+04 </wgt>
<wgt id='1775'> +7.3034278e+04 </wgt>
<wgt id='1776'> +7.3113751e+04 </wgt>
<wgt id='1777'> +7.2257484e+04 </wgt>
<wgt id='1778'> +7.1907950e+04 </wgt>
<wgt id='1779'> +7.2512605e+04 </wgt>
<wgt id='1780'> +7.3435111e+04 </wgt>
<wgt id='1781'> +7.2629203e+04 </wgt>
<wgt id='1782'> +7.2517973e+04 </wgt>
<wgt id='1783'> +7.2623242e+04 </wgt>
<wgt id='1784'> +7.2225896e+04 </wgt>
<wgt id='1785'> +7.2392409e+04 </wgt>
<wgt id='1786'> +7.1049673e+04 </wgt>
<wgt id='1787'> +7.2330716e+04 </wgt>
<wgt id='1788'> +7.0421162e+04 </wgt>
<wgt id='1789'> +7.2231076e+04 </wgt>
<wgt id='1790'> +7.2622463e+04 </wgt>
<wgt id='1791'> +7.2324888e+04 </wgt>
<wgt id='1792'> +7.1854200e+04 </wgt>
<wgt id='1793'> +7.2253144e+04 </wgt>
<wgt id='1794'> +7.2073568e+04 </wgt>
<wgt id='1795'> +7.2364587e+04 </wgt>
<wgt id='1796'> +7.2641820e+04 </wgt>
<wgt id='1797'> +7.1708588e+04 </wgt>
<wgt id='1798'> +7.2353561e+04 </wgt>
<wgt id='1799'> +7.2723345e+04 </wgt>
<wgt id='1800'> +7.2686250e+04 </wgt>
<wgt id='1801'> +7.1951926e+04 </wgt>
<wgt id='1802'> +7.2411812e+04 </wgt>
<wgt id='1803'> +7.1887758e+04 </wgt>
<wgt id='1804'> +7.2260836e+04 </wgt>
<wgt id='1805'> +7.0841629e+04 </wgt>
<wgt id='1806'> +7.1975195e+04 </wgt>
<wgt id='1807'> +7.2029339e+04 </wgt>
<wgt id='1808'> +7.2234107e+04 </wgt>
<wgt id='1809'> +7.2395643e+04 </wgt>
<wgt id='1810'> +7.2223494e+04 </wgt>
<wgt id='1811'> +7.2271147e+04 </wgt>
<wgt id='1812'> +7.2274850e+04 </wgt>
<wgt id='1813'> +7.2134323e+04 </wgt>
<wgt id='1814'> +7.2423575e+04 </wgt>
<wgt id='1815'> +7.2272513e+04 </wgt>
<wgt id='1816'> +7.2293780e+04 </wgt>
<wgt id='1817'> +7.2164480e+04 </wgt>
<wgt id='1818'> +7.2341857e+04 </wgt>
<wgt id='1819'> +7.2691824e+04 </wgt>
<wgt id='1820'> +7.2029146e+04 </wgt>
<wgt id='1821'> +7.2645992e+04 </wgt>
<wgt id='1822'> +7.3181561e+04 </wgt>
<wgt id='1823'> +7.2154822e+04 </wgt>
<wgt id='1824'> +7.2197854e+04 </wgt>
<wgt id='1825'> +7.2772469e+04 </wgt>
<wgt id='1826'> +7.2583211e+04 </wgt>
<wgt id='1827'> +5.8799399e+04 </wgt>
<wgt id='1828'> +5.8950315e+04 </wgt>
<wgt id='1829'> +5.8632845e+04 </wgt>
<wgt id='1830'> +5.8709167e+04 </wgt>
<wgt id='1831'> +5.8872784e+04 </wgt>
<wgt id='1832'> +5.8866421e+04 </wgt>
<wgt id='1833'> +5.8716072e+04 </wgt>
<wgt id='1834'> +5.8362337e+04 </wgt>
<wgt id='1835'> +5.9205878e+04 </wgt>
<wgt id='1836'> +5.9038068e+04 </wgt>
<wgt id='1837'> +5.8538389e+04 </wgt>
<wgt id='1838'> +5.8839459e+04 </wgt>
<wgt id='1839'> +5.8742843e+04 </wgt>
<wgt id='1840'> +5.8715169e+04 </wgt>
<wgt id='1841'> +5.8871243e+04 </wgt>
<wgt id='1842'> +5.8823677e+04 </wgt>
<wgt id='1843'> +5.8864589e+04 </wgt>
<wgt id='1844'> +5.8822436e+04 </wgt>
<wgt id='1845'> +5.8748041e+04 </wgt>
<wgt id='1846'> +5.8697896e+04 </wgt>
<wgt id='1847'> +5.8879940e+04 </wgt>
<wgt id='1848'> +5.9068750e+04 </wgt>
<wgt id='1849'> +5.8429804e+04 </wgt>
<wgt id='1850'> +5.9896500e+04 </wgt>
<wgt id='1851'> +5.7742823e+04 </wgt>
<wgt id='1852'> +6.1072280e+04 </wgt>
<wgt id='1853'> +5.6653112e+04 </wgt>
<wgt id='1854'> +6.0464894e+04 </wgt>
<wgt id='1855'> +5.7306983e+04 </wgt>
<wgt id='1856'> +7.1760450e+04 </wgt>
<wgt id='1857'> +7.1753205e+04 </wgt>
<wgt id='1858'> +7.1676242e+04 </wgt>
<wgt id='1859'> +7.1700518e+04 </wgt>
<wgt id='1860'> +7.1763510e+04 </wgt>
<wgt id='1861'> +7.1907934e+04 </wgt>
<wgt id='1862'> +7.1234338e+04 </wgt>
<wgt id='1863'> +7.1954163e+04 </wgt>
<wgt id='1864'> +7.1634071e+04 </wgt>
<wgt id='1865'> +7.1465019e+04 </wgt>
<wgt id='1866'> +7.1641122e+04 </wgt>
<wgt id='1867'> +7.1726906e+04 </wgt>
<wgt id='1868'> +7.1755444e+04 </wgt>
<wgt id='1869'> +7.1914665e+04 </wgt>
<wgt id='1870'> +7.1599134e+04 </wgt>
<wgt id='1871'> +7.1860363e+04 </wgt>
<wgt id='1872'> +7.1545633e+04 </wgt>
<wgt id='1873'> +7.1760275e+04 </wgt>
<wgt id='1874'> +7.1556518e+04 </wgt>
<wgt id='1875'> +7.1803136e+04 </wgt>
<wgt id='1876'> +7.2097287e+04 </wgt>
<wgt id='1877'> +7.1485774e+04 </wgt>
<wgt id='1878'> +7.1559347e+04 </wgt>
<wgt id='1879'> +7.1441506e+04 </wgt>
<wgt id='1880'> +7.1806016e+04 </wgt>
<wgt id='1881'> +7.1575447e+04 </wgt>
<wgt id='1882'> +7.1990832e+04 </wgt>
<wgt id='1883'> +7.1103784e+04 </wgt>
<wgt id='1884'> +7.2433101e+04 </wgt>
<wgt id='1885'> +7.1392393e+04 </wgt>
<wgt id='1886'> +8.9420226e+04 </wgt>
<wgt id='1887'> +8.2487956e+04 </wgt>
<wgt id='1888'> +6.7836897e+04 </wgt>
<wgt id='1889'> +6.9003975e+04 </wgt>
</rwgt>
</event>
<event npLO=" -1 " npNLO=" 0 ">
 5      0 +7.4519530e+04 1.95771100e+01 7.55820760e-03 1.18217350e-01
        2 -1    0    0  501    0 +0.0000000000e+00 +0.0000000000e+00 +5.2104185591e+02 5.2104185591e+02 0.0000000000e+00 0.0000e+00 -1.0000e+00
       -1 -1    0    0    0  501 +0.0000000000e+00 +0.0000000000e+00 -3.7688710273e+00 3.7688710273e+00 0.0000000000e+00 0.0000e+00 1.0000e+00
       24  2    1    2    0    0 +0.0000000000e+00 +0.0000000000e+00 +5.1727298488e+02 5.2481072693e+02 8.8628202164e+01 0.0000e+00 0.0000e+00
      -15  1    3    3    0    0 -7.5666873444e+00 +2.9369821866e+01 +6.7565394402e+01 7.4081586399e+01 1.7770000000e+00 0.0000e+00 1.0000e+00
       16  1    3    3    0    0 +7.5666873444e+00 -2.9369821866e+01 +4.4970759048e+02 4.5072914053e+02 0.0000000000e+00 0.0000e+00 -1.0000e+00
#aMCatNLO 1  0  0  2  1 0.27146598E+02 0.00000000E+00 -9  5  0 0.00000000E+00 0.00000000E+00 0.00000000E+00 0.00000000E+00 0.00000000E+00
<rwgt>
<wgt id='1001'> +7.4519530e+04 </wgt>
<wgt id='1002'> +7.8981120e+04 </wgt>
<wgt id='1003'> +6.8979223e+04 </wgt>
<wgt id='1004'> +8.1487828e+04 </wgt>
<wgt id='1005'> +8.6534847e+04 </wgt>
<wgt id='1006'> +7.5220554e+04 </wgt>
<wgt id='1007'> +6.6637695e+04 </wgt>
<wgt id='1008'> +7.0494237e+04 </wgt>
<wgt id='1009'> +6.1848721e+04 </wgt>
<wgt id='1010'> +7.4519530e+04 </wgt>
<wgt id='1011'> +7.4519708e+04 </wgt>
<wgt id='1012'> +7.4592835e+04 </wgt>
<wgt id='1013'> +7.4210104e+04 </wgt>
<wgt id='1014'> +7.4633007e+04 </wgt>
<wgt id='1015'> +7.4360089e+04 </wgt>
<wgt id='1016'> +7.4542576e+04 </wgt>
<wgt id='1017'> +7.4505192e+04 </wgt>
<wgt id='1018'> +7.4369263e+04 </wgt>
<wgt id='1019'> +7.4433885e+04 </wgt>
<wgt id='1020'> +7.4263740e+04 </wgt>
<wgt id='1021'> +7.4467881e+04 </wgt>
<wgt id='1022'> +7.4532448e+04 </wgt>
<wgt id='1023'> +7.4587481e+04 </wgt>
<wgt id='1024'> +7.4576361e+04 </wgt>
<wgt id='1025'> +7.4793244e+04 </wgt>
<wgt id='1026'> +7.4390560e+04 </wgt>
<wgt id='1027'> +7.4521162e+04 </wgt>
<wgt id='1028'> +7.4602261e+04 </wgt>
<wgt id='1029'> +7.4670049e+04 </wgt>
<wgt id='1030'> +7.5002013e+04 </wgt>
<wgt id='1031'> +7.4659882e+04 </wgt>
<wgt id='1032'> +7.4627593e+04 </wgt>
<wgt id='1033'> +7.4425044e+04 </wgt>
<wgt id='1034'> +7.4698972e+04 </wgt>
<wgt id='1035'> +7.4388927e+04 </wgt>
<wgt id='1036'> +7.4295183e+04 </wgt>
<wgt id='1037'> +7.4911326e+04 </wgt>
<wgt id='1038'> +7.4656788e+04 </wgt>
<wgt id='1039'> +7.4702991e+04 </wgt>
<wgt id='1040'> +7.4334195e+04 </wgt>
<wgt id='1041'> +7.4916503e+04 </wgt>
<wgt id='1042'> +7.4628265e+04 </wgt>
<wgt id='1043'> +7.4555827e+04 </wgt>
<wgt id='1044'> +7.4605781e+04 </wgt>
<wgt id='1045'> +7.4552085e+04 </wgt>
<wgt id='1046'> +7.4340731e+04 </wgt>
<wgt id='1047'> +7.4508946e+04 </wgt>
<wgt id='1048'> +7.4603121e+04 </wgt>
<wgt id='1049'> +7.4488465e+04 </wgt>
<wgt id='1050'> +7.4663096e+04 </wgt>
<wgt id='1051'> +7.4811024e+04 </wgt>
<wgt id='1052'> +7.4622415e+04 </wgt>
<wgt id='1053'> +7.4427116e+04 </wgt>
<wgt id='1054'> +7.4445777e+04 </wgt>
<wgt id='1055'> +7.4478246e+04 </wgt>
<wgt id='1056'> +7.4571448e+04 </wgt>
<wgt id='1057'> +7.4350713e+04 </wgt>
<wgt id='1058'> +7.4395628e+04 </wgt>
<wgt id='1059'> +7.4624833e+04 </wgt>
<wgt id='1060'> +7.4405872e+04 </wgt>
<wgt id='1061'> +7.4491356e+04 </wgt>
<wgt id='1062'> +7.4670322e+04 </wgt>
<wgt id='1063'> +7.4553511e+04 </wgt>
<wgt id='1064'> +7.4604679e+04 </wgt>
<wgt id='1065'> +7.4550317e+04 </wgt>
<wgt id='1066'> +7.4617509e+04 </wgt>
<wgt id='1067'> +7.4598305e+04 </wgt>
<wgt id='1068'> +7.4573652e+04 </wgt>
<wgt id='1069'> +7.4518049e+04 </wgt>
<wgt id='1070'> +7.4496822e+04 </wgt>
<wgt id='1071'> +7.4574481e+04 </wgt>
<wgt id='1072'> +7.4496365e+04 </wgt>
<wgt id='1073'> +7.4483940e+04 </wgt>
<wgt id='1074'> +7.4467581e+04 </wgt>
<wgt id='1075'> +7.4571737e+04 </wgt>
<wgt id='1076'> +7.4562697e+04 </wgt>
<wgt id='1077'> +7.4538199e+04 </wgt>
<wgt id='1078'> +7.4504770e+04 </wgt>
<wgt id='1079'> +7.4587688e+04 </wgt>
<wgt id='1080'> +7.4476829e+04 </wgt>
<wgt id='1081'> +7.4456072e+04 </wgt>
<wgt id='1082'> +7.4564820e+04 </wgt>
<wgt id='1083'> +7.4430460e+04 </wgt>
<wgt id='1084'> +7.4517675e+04 </wgt>
<wgt id='1085'> +7.4449268e+04 </wgt>
<wgt id='1086'> +7.4515593e+04 </wgt>
<wgt id='1087'> +7.4557607e+04 </wgt>
<wgt id='1088'> +7.4558761e+04 </wgt>
<wgt id='1089'> +7.4499802e+04 </wgt>
<wgt id='1090'> +7.4567045e+04 </wgt>
<wgt id='1091'> +7.4467802e+04 </wgt>
<wgt id='1092'> +7.4481544e+04 </wgt>
<wgt id='1093'> +7.4509066e+04 </wgt>
<wgt id='1094'> +7.4584294e+04 </wgt>
<wgt id='1095'> +7.4550131e+04 </wgt>
<wgt id='1096'> +7.4518929e+04 </wgt>
<wgt id='1097'> +7.4460721e+04 </wgt>
<wgt id='1098'> +7.4536173e+04 </wgt>
<wgt id='1099'> +7.4563274e+04 </wgt>
<wgt id='1100'> +7.4487411e+04 </wgt>
<wgt id='1101'> +7.4512861e+04 </wgt>
<wgt id='1102'> +7.4551858e+04 </wgt>
<wgt id='1103'> +7.4532667e+04 </wgt>
<wgt id='1104'> +7.4528476e+04 </wgt>
<wgt id='1105'> +7.4493374e+04 </wgt>
<wgt id='1106'> +7.4501171e+04 </wgt>
<wgt id='1107'> +7.4519661e+04 </wgt>
<wgt id='1108'> +7.4514904e+04 </wgt>
<wgt id='1109'> +7.4535205e+04 </wgt>
<wgt id='1110'> +7.4519530e+04 </wgt>
<wgt id='1111'> +7.4586510e+04 </wgt>
<wgt id='1112'> +7.4349634e+04 </wgt>
<wgt id='1113'> +7.4519530e+04 </wgt>
<wgt id='1114'> +7.4705660e+04 </wgt>
<wgt id='1115'> +7.6006193e+04 </wgt>
<wgt id='1116'> +7.0324677e+04 </wgt>
<wgt id='1117'> +7.3300605e+04 </wgt>
<wgt id='1118'> +7.3699220e+04 </wgt>
<wgt id='1119'> +7.4922518e+04 </wgt>
<wgt id='1120'> +7.6538696e+04 </wgt>
<wgt id='1121'> +7.3618246e+04 </wgt>
<wgt id='1122'> +7.4502820e+04 </wgt>
<wgt id='1123'> +7.3268406e+04 </wgt>
<wgt id='1124'> +7.3616949e+04 </wgt>
<wgt id='1125'> +7.3573096e+04 </wgt>
<wgt id='1126'> +7.5123781e+04 </wgt>
<wgt id='1127'> +7.4396713e+04 </wgt>
<wgt id='1128'> +7.5238006e+04 </wgt>
<wgt id='1129'> +7.5058683e+04 </wgt>
<wgt id='1130'> +7.5566191e+04 </wgt>
<wgt id='1131'> +7.4219219e+04 </wgt>
<wgt id='1132'> +7.6148691e+04 </wgt>
<wgt id='1133'> +7.3838980e+04 </wgt>
<wgt id='1134'> +7.4518448e+04 </wgt>
<wgt id='1135'> +7.5450378e+04 </wgt>
<wgt id='1136'> +7.6219224e+04 </wgt>
<wgt id='1137'> +7.3931845e+04 </wgt>
<wgt id='1138'> +7.5292424e+04 </wgt>
<wgt id='1139'> +7.4105387e+04 </wgt>
<wgt id='1140'> +7.6665399e+04 </wgt>
<wgt id='1141'> +7.5120254e+04 </wgt>
<wgt id='1142'> +7.5956966e+04 </wgt>
<wgt id='1143'> +7.6947686e+04 </wgt>
<wgt id='1144'> +7.3149155e+04 </wgt>
<wgt id='1145'> +7.3557276e+04 </wgt>
<wgt id='1146'> +7.5106449e+04 </wgt>
<wgt id='1147'> +7.3745387e+04 </wgt>
<wgt id='1148'> +7.2849807e+04 </wgt>
<wgt id='1149'> +7.3964800e+04 </wgt>
<wgt id='1150'> +7.3627029e+04 </wgt>
<wgt id='1151'> +7.4178985e+04 </wgt>
<wgt id='1152'> +7.5142056e+04 </wgt>
<wgt id='1153'> +7.3998035e+04 </wgt>
<wgt id='1154'> +7.4827193e+04 </wgt>
<wgt id='1155'> +7.5657476e+04 </wgt>
<wgt id='1156'> +7.4706461e+04 </wgt>
<wgt id='1157'> +7.5407243e+04 </wgt>
<wgt id='1158'> +7.3461777e+04 </wgt>
<wgt id='1159'> +7.4763802e+04 </wgt>
<wgt id='1160'> +7.5770387e+04 </wgt>
<wgt id='1161'> +7.3580617e+04 </wgt>
<wgt id='1162'> +7.7213924e+04 </wgt>
<wgt id='1163'> +7.5041567e+04 </wgt>
<wgt id='1164'> +7.2786394e+04 </wgt>
<wgt id='1165'> +7.4701626e+04 </wgt>
<wgt id='1166'> +7.5933472e+04 </wgt>
<wgt id='1167'> +7.5524588e+04 </wgt>
<wgt id='1168'> +7.3166307e+04 </wgt>
<wgt id='1169'> +7.4667784e+04 </wgt>
<wgt id='1170'> +7.5999763e+04 </wgt>
<wgt id='1171'> +7.5357922e+04 </wgt>
<wgt id='1172'> +7.6013699e+04 </wgt>
<wgt id='1173'> +7.3784433e+04 </wgt>
<wgt id='1174'> +7.4852532e+04 </wgt>
<wgt id='1175'> +7.4349998e+04 </wgt>
<wgt id='1176'> +7.4537615e+04 </wgt>
<wgt id='1177'> +7.2033010e+04 </wgt>
<wgt id='1178'> +7.5146384e+04 </wgt>
<wgt id='1179'> +7.4787293e+04 </wgt>
<wgt id='1180'> +7.3546372e+04 </wgt>
<wgt id='1181'> +7.5817863e+04 </wgt>
<wgt id='1182'> +7.6327191e+04 </wgt>
<wgt id='1183'> +7.5182833e+04 </wgt>
<wgt id='1184'> +7.4213291e+04 </wgt>
<wgt id='1185'> +7.6308811e+04 </wgt>
<wgt id='1186'> +7.2240933e+04 </wgt>
<wgt id='1187'> +7.3682291e+04 </wgt>
<wgt id='1188'> +7.3584769e+04 </wgt>
<wgt id='1189'> +7.4873400e+04 </wgt>
<wgt id='1190'> +7.4095935e+04 </wgt>
<wgt id='1191'> +7.5733184e+04 </wgt>
<wgt id='1192'> +7.4279904e+04 </wgt>
<wgt id='1193'> +7.3748971e+04 </wgt>
<wgt id='1194'> +7.4454876e+04 </wgt>
<wgt id='1195'> +7.5058683e+04 </wgt>
<wgt id='1196'> +7.2174348e+04 </wgt>
<wgt id='1197'> +7.3883065e+04 </wgt>
<wgt id='1198'> +7.4331049e+04 </wgt>
<wgt id='1199'> +7.6428216e+04 </wgt>
<wgt id='1200'> +7.3923432e+04 </wgt>
<wgt id='1201'> +7.4107869e+04 </wgt>
<wgt id='1202'> +7.0698034e+04 </wgt>
<wgt id='1203'> +7.4232281e+04 </wgt>
<wgt id='1204'> +7.4923329e+04 </wgt>
<wgt id='1205'> +7.4315493e+04 </wgt>
<wgt id='1206'> +7.4136132e+04 </wgt>
<wgt id='1207'> +7.5766436e+04 </wgt>
<wgt id='1208'> +7.3628283e+04 </wgt>
<wgt id='1209'> +7.5660425e+04 </wgt>
<wgt id='1210'> +7.2332448e+04 </wgt>
<wgt id='1211'> +7.4622215e+04 </wgt>
<wgt id='1212'> +7.3301360e+04 </wgt>
<wgt id='1213'> +7.4816449e+04 </wgt>
<wgt id='1214'> +7.4480228e+04 </wgt>
<wgt id='1215'> +7.5355456e+04 </wgt>
<wgt id='1216'> +7.5062295e+04 </wgt>
<wgt id='1217'> +7.4838965e+04 </wgt>
<wgt id='1218'> +7.4789281e+04 </wgt>
<wgt id='1219'> +7.4936120e+04 </wgt>
<wgt id='1220'> +7.4431592e+04 </wgt>
<wgt id='1221'> +7.4360650e+04 </wgt>
<wgt id='1222'> +7.3881437e+04 </wgt>
<wgt id='1223'> +7.3111815e+04 </wgt>
<wgt id='1224'> +7.3067331e+04 </wgt>
<wgt id='1225'> +7.3352359e+04 </wgt>
<wgt id='1226'> +7.2909959e+04 </wgt>
<wgt id='1227'> +7.3388188e+04 </wgt>
<wgt id='1228'> +7.3096557e+04 </wgt>
<wgt id='1229'> +7.2780869e+04 </wgt>
<wgt id='1230'> +7.3253918e+04 </wgt>
<wgt id='1231'> +7.3453964e+04 </wgt>
<wgt id='1232'> +7.3292539e+04 </wgt>
<wgt id='1233'> +7.2921516e+04 </wgt>
<wgt id='1234'> +7.2986175e+04 </wgt>
<wgt id='1235'> +7.3191694e+04 </wgt>
<wgt id='1236'> +7.3384719e+04 </wgt>
<wgt id='1237'> +7.3017293e+04 </wgt>
<wgt id='1238'> +7.3118546e+04 </wgt>
<wgt id='1239'> +7.3420855e+04 </wgt>
<wgt id='1240'> +7.3069321e+04 </wgt>
<wgt id='1241'> +7.3250711e+04 </wgt>
<wgt id='1242'> +7.3194778e+04 </wgt>
<wgt id='1243'> +7.3090614e+04 </wgt>
<wgt id='1244'> +7.3242210e+04 </wgt>
<wgt id='1245'> +7.3066709e+04 </wgt>
<wgt id='1246'> +7.2966227e+04 </wgt>
<wgt id='1247'> +7.3457830e+04 </wgt>
<wgt id='1248'> +7.2972535e+04 </wgt>
<wgt id='1249'> +7.3134625e+04 </wgt>
<wgt id='1250'> +7.3059707e+04 </wgt>
<wgt id='1251'> +7.3177753e+04 </wgt>
<wgt id='1252'> +7.3524266e+04 </wgt>
<wgt id='1253'> +7.2727766e+04 </wgt>
<wgt id='1254'> +7.2804793e+04 </wgt>
<wgt id='1255'> +7.3259686e+04 </wgt>
<wgt id='1256'> +7.3115516e+04 </wgt>
<wgt id='1257'> +7.3085902e+04 </wgt>
<wgt id='1258'> +7.3227994e+04 </wgt>
<wgt id='1259'> +7.3215536e+04 </wgt>
<wgt id='1260'> +7.2972514e+04 </wgt>
<wgt id='1261'> +7.3146152e+04 </wgt>
<wgt id='1262'> +7.3127149e+04 </wgt>
<wgt id='1263'> +7.3079504e+04 </wgt>
<wgt id='1264'> +7.3187704e+04 </wgt>
<wgt id='1265'> +7.3172204e+04 </wgt>
<wgt id='1266'> +7.3040235e+04 </wgt>
<wgt id='1267'> +7.3145310e+04 </wgt>
<wgt id='1268'> +7.3143641e+04 </wgt>
<wgt id='1269'> +7.3099340e+04 </wgt>
<wgt id='1270'> +7.3087369e+04 </wgt>
<wgt id='1271'> +7.3225601e+04 </wgt>
<wgt id='1272'> +7.3190913e+04 </wgt>
<wgt id='1273'> +7.3025001e+04 </wgt>
<wgt id='1274'> +7.3073222e+04 </wgt>
<wgt id='1275'> +7.3149838e+04 </wgt>
<wgt id='1276'> +7.2977869e+04 </wgt>
<wgt id='1277'> +7.3085048e+04 </wgt>
<wgt id='1278'> +7.3146639e+04 </wgt>
<wgt id='1279'> +7.3010325e+04 </wgt>
<wgt id='1280'> +7.3123024e+04 </wgt>
<wgt id='1281'> +7.2950889e+04 </wgt>
<wgt id='1282'> +7.3145642e+04 </wgt>
<wgt id='1283'> +7.3142185e+04 </wgt>
<wgt id='1284'> +7.3127752e+04 </wgt>
<wgt id='1285'> +7.3015752e+04 </wgt>
<wgt id='1286'> +7.3154951e+04 </wgt>
<wgt id='1287'> +7.3053832e+04 </wgt>
<wgt id='1288'> +7.3196757e+04 </wgt>
<wgt id='1289'> +7.3117436e+04 </wgt>
<wgt id='1290'> +7.3020876e+04 </wgt>
<wgt id='1291'> +7.3191851e+04 </wgt>
<wgt id='1292'> +7.3063386e+04 </wgt>
<wgt id='1293'> +7.3133509e+04 </wgt>
<wgt id='1294'> +7.3102277e+04 </wgt>
<wgt id='1295'> +7.3193218e+04 </wgt>
<wgt id='1296'> +7.3127697e+04 </wgt>
<wgt id='1297'> +7.3151276e+04 </wgt>
<wgt id='1298'> +7.3055229e+04 </wgt>
<wgt id='1299'> +7.3119557e+04 </wgt>
<wgt id='1300'> +7.3153896e+04 </wgt>
<wgt id='1301'> +7.3109469e+04 </wgt>
<wgt id='1302'> +7.3086572e+04 </wgt>
<wgt id='1303'> +7.3120813e+04 </wgt>
<wgt id='1304'> +7.3149828e+04 </wgt>
<wgt id='1305'> +7.3057312e+04 </wgt>
<wgt id='1306'> +7.3119975e+04 </wgt>
<wgt id='1307'> +7.3059592e+04 </wgt>
<wgt id='1308'> +7.3078885e+04 </wgt>
<wgt id='1309'> +7.3113328e+04 </wgt>
<wgt id='1310'> +7.3146410e+04 </wgt>
<wgt id='1311'> +7.3041136e+04 </wgt>
<wgt id='1312'> +7.3039586e+04 </wgt>
<wgt id='1313'> +7.3052225e+04 </wgt>
<wgt id='1314'> +7.3153729e+04 </wgt>
<wgt id='1315'> +7.3091871e+04 </wgt>
<wgt id='1316'> +7.3107854e+04 </wgt>
<wgt id='1317'> +7.3169358e+04 </wgt>
<wgt id='1318'> +7.3134703e+04 </wgt>
<wgt id='1319'> +7.3067181e+04 </wgt>
<wgt id='1320'> +7.3136456e+04 </wgt>
<wgt id='1321'> +7.3126622e+04 </wgt>
<wgt id='1322'> +7.3083604e+04 </wgt>
<wgt id='1323'> +7.3068018e+04 </wgt>
<wgt id='1324'> +7.3234075e+04 </wgt>
<wgt id='1325'> +7.3055545e+04 </wgt>
<wgt id='1326'> +7.2610684e+04 </wgt>
<wgt id='1327'> +6.9741496e+04 </wgt>
<wgt id='1328'> +7.4322375e+04 </wgt>
<wgt id='1329'> +7.3737693e+04 </wgt>
<wgt id='1330'> +7.4460326e+04 </wgt>
<wgt id='1331'> +7.4701607e+04 </wgt>
<wgt id='1332'> +7.4300856e+04 </wgt>
<wgt id='1333'> +7.4538348e+04 </wgt>
<wgt id='1334'> +7.2473881e+04 </wgt>
<wgt id='1335'> +7.3636914e+04 </wgt>
<wgt id='1336'> +7.4495356e+04 </wgt>
<wgt id='1337'> +7.4183719e+04 </wgt>
<wgt id='1338'> +7.5079823e+04 </wgt>
<wgt id='1339'> +7.4589346e+04 </wgt>
<wgt id='1340'> +7.3430190e+04 </wgt>
<wgt id='1341'> +7.3412497e+04 </wgt>
<wgt id='1342'> +7.4790152e+04 </wgt>
<wgt id='1343'> +7.4910461e+04 </wgt>
<wgt id='1344'> +7.3575937e+04 </wgt>
<wgt id='1345'> +7.5522902e+04 </wgt>
<wgt id='1346'> +7.4607201e+04 </wgt>
<wgt id='1347'> +7.5053265e+04 </wgt>
<wgt id='1348'> +7.2786550e+04 </wgt>
<wgt id='1349'> +7.4591569e+04 </wgt>
<wgt id='1350'> +7.3678555e+04 </wgt>
<wgt id='1351'> +7.3865653e+04 </wgt>
<wgt id='1352'> +7.4983910e+04 </wgt>
<wgt id='1353'> +7.4878164e+04 </wgt>
<wgt id='1354'> +7.4714623e+04 </wgt>
<wgt id='1355'> +7.4813489e+04 </wgt>
<wgt id='1356'> +7.4023411e+04 </wgt>
<wgt id='1357'> +7.4059419e+04 </wgt>
<wgt id='1358'> +7.4076109e+04 </wgt>
<wgt id='1359'> +7.4953207e+04 </wgt>
<wgt id='1360'> +7.4419576e+04 </wgt>
<wgt id='1361'> +7.5658957e+04 </wgt>
<wgt id='1362'> +7.5318739e+04 </wgt>
<wgt id='1363'> +7.4234883e+04 </wgt>
<wgt id='1364'> +7.4413484e+04 </wgt>
<wgt id='1365'> +7.3988776e+04 </wgt>
<wgt id='1366'> +7.4019286e+04 </wgt>
<wgt id='1367'> +7.5107394e+04 </wgt>
<wgt id='1368'> +7.4629519e+04 </wgt>
<wgt id='1369'> +7.2884505e+04 </wgt>
<wgt id='1370'> +7.4258459e+04 </wgt>
<wgt id='1371'> +7.4251067e+04 </wgt>
<wgt id='1372'> +7.5093170e+04 </wgt>
<wgt id='1373'> +7.4351069e+04 </wgt>
<wgt id='1374'> +7.4862001e+04 </wgt>
<wgt id='1375'> +7.4595079e+04 </wgt>
<wgt id='1376'> +7.4287887e+04 </wgt>
<wgt id='1377'> +7.4436625e+04 </wgt>
<wgt id='1378'> +7.3309587e+04 </wgt>
<wgt id='1379'> +7.5189103e+04 </wgt>
<wgt id='1380'> +7.3760088e+04 </wgt>
<wgt id='1381'> +7.3959034e+04 </wgt>
<wgt id='1382'> +7.3898175e+04 </wgt>
<wgt id='1383'> +7.4599770e+04 </wgt>
<wgt id='1384'> +7.4439412e+04 </wgt>
<wgt id='1385'> +7.3257847e+04 </wgt>
<wgt id='1386'> +7.4776202e+04 </wgt>
<wgt id='1387'> +7.3186568e+04 </wgt>
<wgt id='1388'> +7.4667268e+04 </wgt>
<wgt id='1389'> +7.3978306e+04 </wgt>
<wgt id='1390'> +7.3147355e+04 </wgt>
<wgt id='1391'> +7.4404012e+04 </wgt>
<wgt id='1392'> +7.4136198e+04 </wgt>
<wgt id='1393'> +7.3349261e+04 </wgt>
<wgt id='1394'> +7.3988776e+04 </wgt>
<wgt id='1395'> +7.4848198e+04 </wgt>
<wgt id='1396'> +7.2716332e+04 </wgt>
<wgt id='1397'> +7.4497955e+04 </wgt>
<wgt id='1398'> +7.5219956e+04 </wgt>
<wgt id='1399'> +7.4829520e+04 </wgt>
<wgt id='1400'> +7.5451570e+04 </wgt>
<wgt id='1401'> +7.4733695e+04 </wgt>
<wgt id='1402'> +7.4660216e+04 </wgt>
<wgt id='1403'> +7.4402366e+04 </wgt>
<wgt id='1404'> +7.5278316e+04 </wgt>
<wgt id='1405'> +7.2837858e+04 </wgt>
<wgt id='1406'> +7.3573717e+04 </wgt>
<wgt id='1407'> +7.4691588e+04 </wgt>
<wgt id='1408'> +7.4918116e+04 </wgt>
<wgt id='1409'> +7.3241893e+04 </wgt>
<wgt id='1410'> +7.4724338e+04 </wgt>
<wgt id='1411'> +7.5007587e+04 </wgt>
<wgt id='1412'> +7.5332401e+04 </wgt>
<wgt id='1413'> +7.5056846e+04 </wgt>
<wgt id='1414'> +7.4262932e+04 </wgt>
<wgt id='1415'> +7.2896842e+04 </wgt>
<wgt id='1416'> +7.4531600e+04 </wgt>
<wgt id='1417'> +7.3726279e+04 </wgt>
<wgt id='1418'> +7.5481315e+04 </wgt>
<wgt id='1419'> +7.4452046e+04 </wgt>
<wgt id='1420'> +7.3722174e+04 </wgt>
<wgt id='1421'> +7.3848400e+04 </wgt>
<wgt id='1422'> +7.4171936e+04 </wgt>
<wgt id='1423'> +7.5378701e+04 </wgt>
<wgt id='1424'> +7.3450577e+04 </wgt>
<wgt id='1425'> +7.3267751e+04 </wgt>
<wgt id='1426'> +7.4694214e+04 </wgt>
<wgt id='1427'> +7.5401511e+04 </wgt>
<wgt id='1428'> +7.5073404e+04 </wgt>
<wgt id='1429'> +7.4565905e+04 </wgt>
<wgt id='1430'> +7.4073043e+04 </wgt>
<wgt id='1431'> +7.4305996e+04 </wgt>
<wgt id='1432'> +7.4644637e+04 </wgt>
<wgt id='1433'> +7.4348315e+04 </wgt>
<wgt id='1434'> +7.4215967e+04 </wgt>
<wgt id='1435'> +7.4154018e+04 </wgt>
<wgt id='1436'> +7.4175575e+04 </wgt>
<wgt id='1437'> +7.4555679e+04 </wgt>
<wgt id='1438'> +7.4457924e+04 </wgt>
<wgt id='1439'> +7.4133599e+04 </wgt>
<wgt id='1440'> +7.4289160e+04 </wgt>
<wgt id='1441'> +7.4226464e+04 </wgt>
<wgt id='1442'> +7.4447257e+04 </wgt>
<wgt id='1443'> +7.4296475e+04 </wgt>
<wgt id='1444'> +7.4112194e+04 </wgt>
<wgt id='1445'> +7.4324263e+04 </wgt>
<wgt id='1446'> +7.4250228e+04 </wgt>
<wgt id='1447'> +7.4088174e+04 </wgt>
<wgt id='1448'> +7.4431523e+04 </wgt>
<wgt id='1449'> +7.4289418e+04 </wgt>
<wgt id='1450'> +7.4070994e+04 </wgt>
<wgt id='1451'> +7.4248633e+04 </wgt>
<wgt id='1452'> +7.4214255e+04 </wgt>
<wgt id='1453'> +7.4342505e+04 </wgt>
<wgt id='1454'> +7.4269038e+04 </wgt>
<wgt id='1455'> +7.4309796e+04 </wgt>
<wgt id='1456'> +7.4342859e+04 </wgt>
<wgt id='1457'> +7.4388421e+04 </wgt>
<wgt id='1458'> +7.4277173e+04 </wgt>
<wgt id='1459'> +7.4232805e+04 </wgt>
<wgt id='1460'> +7.4220370e+04 </wgt>
<wgt id='1461'> +7.4240212e+04 </wgt>
<wgt id='1462'> +7.4262355e+04 </wgt>
<wgt id='1463'> +7.4290975e+04 </wgt>
<wgt id='1464'> +7.4245310e+04 </wgt>
<wgt id='1465'> +7.4296306e+04 </wgt>
<wgt id='1466'> +7.4325062e+04 </wgt>
<wgt id='1467'> +7.4335437e+04 </wgt>
<wgt id='1468'> +7.4350173e+04 </wgt>
<wgt id='1469'> +7.4282502e+04 </wgt>
<wgt id='1470'> +7.4353325e+04 </wgt>
<wgt id='1471'> +7.4341140e+04 </wgt>
<wgt id='1472'> +7.4308777e+04 </wgt>
<wgt id='1473'> +7.4293761e+04 </wgt>
<wgt id='1474'> +7.4332796e+04 </wgt>
<wgt id='1475'> +7.4276244e+04 </wgt>
<wgt id='1476'> +7.4320857e+04 </wgt>
<wgt id='1477'> +7.4318478e+04 </wgt>
<wgt id='1478'> +7.4307386e+04 </wgt>
<wgt id='1479'> +7.4279658e+04 </wgt>
<wgt id='1480'> +7.4327767e+04 </wgt>
<wgt id='1481'> +7.4295158e+04 </wgt>
<wgt id='1482'> +7.4565905e+04 </wgt>
<wgt id='1483'> +7.4073043e+04 </wgt>
<wgt id='1484'> +7.6018202e+04 </wgt>
<wgt id='1485'> +7.6248577e+04 </wgt>
<wgt id='1486'> +7.5871276e+04 </wgt>
<wgt id='1487'> +7.4991953e+04 </wgt>
<wgt id='1488'> +7.5917120e+04 </wgt>
<wgt id='1489'> +7.6270203e+04 </wgt>
<wgt id='1490'> +7.4844809e+04 </wgt>
<wgt id='1491'> +7.5737759e+04 </wgt>
<wgt id='1492'> +7.4697313e+04 </wgt>
<wgt id='1493'> +7.5881176e+04 </wgt>
<wgt id='1494'> +7.5342278e+04 </wgt>
<wgt id='1495'> +7.5020713e+04 </wgt>
<wgt id='1496'> +7.5699731e+04 </wgt>
<wgt id='1497'> +7.5291401e+04 </wgt>
<wgt id='1498'> +7.6955182e+04 </wgt>
<wgt id='1499'> +7.6139855e+04 </wgt>
<wgt id='1500'> +7.4707815e+04 </wgt>
<wgt id='1501'> +7.5590812e+04 </wgt>
<wgt id='1502'> +7.6993642e+04 </wgt>
<wgt id='1503'> +7.5445051e+04 </wgt>
<wgt id='1504'> +7.6138485e+04 </wgt>
<wgt id='1505'> +7.5814905e+04 </wgt>
<wgt id='1506'> +7.5776163e+04 </wgt>
<wgt id='1507'> +7.5430189e+04 </wgt>
<wgt id='1508'> +7.4904981e+04 </wgt>
<wgt id='1509'> +7.5782896e+04 </wgt>
<wgt id='1510'> +7.6022328e+04 </wgt>
<wgt id='1511'> +7.5140373e+04 </wgt>
<wgt id='1512'> +7.5595116e+04 </wgt>
<wgt id='1513'> +7.5706716e+04 </wgt>
<wgt id='1514'> +7.6353552e+04 </wgt>
<wgt id='1515'> +7.5481837e+04 </wgt>
<wgt id='1516'> +7.4433800e+04 </wgt>
<wgt id='1517'> +7.6383955e+04 </wgt>
<wgt id='1518'> +7.6181564e+04 </wgt>
<wgt id='1519'> +7.6194753e+04 </wgt>
<wgt id='1520'> +7.5265595e+04 </wgt>
<wgt id='1521'> +7.4659523e+04 </wgt>
<wgt id='1522'> +7.6714421e+04 </wgt>
<wgt id='1523'> +7.6511892e+04 </wgt>
<wgt id='1524'> +7.6147761e+04 </wgt>
<wgt id='1525'> +7.6249844e+04 </wgt>
<wgt id='1526'> +7.5946689e+04 </wgt>
<wgt id='1527'> +7.6361208e+04 </wgt>
<wgt id='1528'> +7.6396030e+04 </wgt>
<wgt id='1529'> +7.6718864e+04 </wgt>
<wgt id='1530'> +7.5919804e+04 </wgt>
<wgt id='1531'> +7.5579125e+04 </wgt>
<wgt id='1532'> +7.5284683e+04 </wgt>
<wgt id='1533'> +7.6439309e+04 </wgt>
<wgt id='1534'> +7.6389023e+04 </wgt>
<wgt id='1535'> +7.5456972e+04 </wgt>
<wgt id='1536'> +7.6351159e+04 </wgt>
<wgt id='1537'> +7.5796682e+04 </wgt>
<wgt id='1538'> +7.8091328e+04 </wgt>
<wgt id='1539'> +7.6377802e+04 </wgt>
<wgt id='1540'> +7.6349727e+04 </wgt>
<wgt id='1541'> +7.6417695e+04 </wgt>
<wgt id='1542'> +7.6957563e+04 </wgt>
<wgt id='1543'> +7.6447599e+04 </wgt>
<wgt id='1544'> +7.7050960e+04 </wgt>
<wgt id='1545'> +7.6005068e+04 </wgt>
<wgt id='1546'> +7.5905072e+04 </wgt>
<wgt id='1547'> +7.6699990e+04 </wgt>
<wgt id='1548'> +7.5471437e+04 </wgt>
<wgt id='1549'> +7.6819417e+04 </wgt>
<wgt id='1550'> +7.6514993e+04 </wgt>
<wgt id='1551'> +7.7481050e+04 </wgt>
<wgt id='1552'> +7.5670770e+04 </wgt>
<wgt id='1553'> +7.7375547e+04 </wgt>
<wgt id='1554'> +7.4170595e+04 </wgt>
<wgt id='1555'> +7.6468354e+04 </wgt>
<wgt id='1556'> +7.6355710e+04 </wgt>
<wgt id='1557'> +7.5791048e+04 </wgt>
<wgt id='1558'> +7.6775137e+04 </wgt>
<wgt id='1559'> +7.6867238e+04 </wgt>
<wgt id='1560'> +7.6031983e+04 </wgt>
<wgt id='1561'> +7.6449898e+04 </wgt>
<wgt id='1562'> +7.6386883e+04 </wgt>
<wgt id='1563'> +7.6537780e+04 </wgt>
<wgt id='1564'> +7.5264322e+04 </wgt>
<wgt id='1565'> +7.4812596e+04 </wgt>
<wgt id='1566'> +7.6212329e+04 </wgt>
<wgt id='1567'> +7.7259805e+04 </wgt>
<wgt id='1568'> +7.5928951e+04 </wgt>
<wgt id='1569'> +7.6899396e+04 </wgt>
<wgt id='1570'> +7.6627173e+04 </wgt>
<wgt id='1571'> +7.7251447e+04 </wgt>
<wgt id='1572'> +7.5364216e+04 </wgt>
<wgt id='1573'> +7.6465918e+04 </wgt>
<wgt id='1574'> +7.5102260e+04 </wgt>
<wgt id='1575'> +7.5555334e+04 </wgt>
<wgt id='1576'> +7.6782405e+04 </wgt>
<wgt id='1577'> +7.5089640e+04 </wgt>
<wgt id='1578'> +7.6098390e+04 </wgt>
<wgt id='1579'> +7.6306464e+04 </wgt>
<wgt id='1580'> +7.7157267e+04 </wgt>
<wgt id='1581'> +7.6862701e+04 </wgt>
<wgt id='1582'> +7.6465722e+04 </wgt>
<wgt id='1583'> +7.4763854e+04 </wgt>
<wgt id='1584'> +7.4881723e+04 </wgt>
<wgt id='1585'> +7.3604202e+04 </wgt>
<wgt id='1586'> +6.7020983e+04 </wgt>
<wgt id='1587'> +7.4655482e+04 </wgt>
<wgt id='1588'> +7.4565905e+04 </wgt>
<wgt id='1589'> +7.4372416e+04 </wgt>
<wgt id='1590'> +7.4027842e+04 </wgt>
<wgt id='1591'> +7.4073043e+04 </wgt>
<wgt id='1592'> +7.3679978e+04 </wgt>
<wgt id='1593'> +7.4558231e+04 </wgt>
<wgt id='1594'> +7.5248456e+04 </wgt>
<wgt id='1595'> +7.4656494e+04 </wgt>
<wgt id='1596'> +7.4052057e+04 </wgt>
<wgt id='1597'> +7.5258569e+04 </wgt>
<wgt id='1598'> +7.4155470e+04 </wgt>
<wgt id='1599'> +7.5020011e+04 </wgt>
<wgt id='1600'> +7.3200355e+04 </wgt>
<wgt id='1601'> +7.5794464e+04 </wgt>
<wgt id='1602'> +7.4100470e+04 </wgt>
<wgt id='1603'> +7.5109328e+04 </wgt>
<wgt id='1604'> +7.5087784e+04 </wgt>
<wgt id='1605'> +7.4360311e+04 </wgt>
<wgt id='1606'> +7.3918810e+04 </wgt>
<wgt id='1607'> +7.4729422e+04 </wgt>
<wgt id='1608'> +7.3287133e+04 </wgt>
<wgt id='1609'> +7.5246085e+04 </wgt>
<wgt id='1610'> +7.4420208e+04 </wgt>
<wgt id='1611'> +7.4420181e+04 </wgt>
<wgt id='1612'> +7.5249398e+04 </wgt>
<wgt id='1613'> +7.2916104e+04 </wgt>
<wgt id='1614'> +7.4148304e+04 </wgt>
<wgt id='1615'> +7.5247085e+04 </wgt>
<wgt id='1616'> +7.3641352e+04 </wgt>
<wgt id='1617'> +7.5182121e+04 </wgt>
<wgt id='1618'> +7.4796341e+04 </wgt>
<wgt id='1619'> +7.4015407e+04 </wgt>
<wgt id='1620'> +7.4816045e+04 </wgt>
<wgt id='1621'> +7.4318913e+04 </wgt>
<wgt id='1622'> +7.4717120e+04 </wgt>
<wgt id='1623'> +7.4054419e+04 </wgt>
<wgt id='1624'> +7.4857528e+04 </wgt>
<wgt id='1625'> +7.3234636e+04 </wgt>
<wgt id='1626'> +7.3759454e+04 </wgt>
<wgt id='1627'> +7.5110334e+04 </wgt>
<wgt id='1628'> +7.5264284e+04 </wgt>
<wgt id='1629'> +7.4323156e+04 </wgt>
<wgt id='1630'> +7.4610498e+04 </wgt>
<wgt id='1631'> +7.4045282e+04 </wgt>
<wgt id='1632'> +7.3911691e+04 </wgt>
<wgt id='1633'> +7.4993117e+04 </wgt>
<wgt id='1634'> +7.5567353e+04 </wgt>
<wgt id='1635'> +7.3596967e+04 </wgt>
<wgt id='1636'> +7.4042507e+04 </wgt>
<wgt id='1637'> +7.5392130e+04 </wgt>
<wgt id='1638'> +7.4169851e+04 </wgt>
<wgt id='1639'> +7.4639032e+04 </wgt>
<wgt id='1640'> +7.6172594e+04 </wgt>
<wgt id='1641'> +7.3337316e+04 </wgt>
<wgt id='1642'> +7.3944176e+04 </wgt>
<wgt id='1643'> +7.5042687e+04 </wgt>
<wgt id='1644'> +7.5260788e+04 </wgt>
<wgt id='1645'> +7.3348177e+04 </wgt>
<wgt id='1646'> +7.4458127e+04 </wgt>
<wgt id='1647'> +7.5054704e+04 </wgt>
<wgt id='1648'> +7.5053191e+04 </wgt>
<wgt id='1649'> +7.4748870e+04 </wgt>
<wgt id='1650'> +7.5385296e+04 </wgt>
<wgt id='1651'> +7.3461335e+04 </wgt>
<wgt id='1652'> +7.3956007e+04 </wgt>
<wgt id='1653'> +7.4253046e+04 </wgt>
<wgt id='1654'> +7.4876992e+04 </wgt>
<wgt id='1655'> +7.5210921e+04 </wgt>
<wgt id='1656'> +7.5616163e+04 </wgt>
<wgt id='1657'> +7.5925424e+04 </wgt>
<wgt id='1658'> +7.5918336e+04 </wgt>
<wgt id='1659'> +7.5636614e+04 </wgt>
<wgt id='1660'> +7.5845280e+04 </wgt>
<wgt id='1661'> +7.6338566e+04 </wgt>
<wgt id='1662'> +7.4658073e+04 </wgt>
<wgt id='1663'> +7.5159440e+04 </wgt>
<wgt id='1664'> +7.5330506e+04 </wgt>
<wgt id='1665'> +7.4997216e+04 </wgt>
<wgt id='1666'> +7.5633397e+04 </wgt>
<wgt id='1667'> +7.4856832e+04 </wgt>
<wgt id='1668'> +7.6213841e+04 </wgt>
<wgt id='1669'> +7.5994834e+04 </wgt>
<wgt id='1670'> +7.4895733e+04 </wgt>
<wgt id='1671'> +7.5644207e+04 </wgt>
<wgt id='1672'> +7.5866329e+04 </wgt>
<wgt id='1673'> +7.6591411e+04 </wgt>
<wgt id='1674'> +7.5004324e+04 </wgt>
<wgt id='1675'> +7.6331639e+04 </wgt>
<wgt id='1676'> +7.4992213e+04 </wgt>
<wgt id='1677'> +7.4794401e+04 </wgt>
<wgt id='1678'> +7.6502983e+04 </wgt>
<wgt id='1679'> +7.5756371e+04 </wgt>
<wgt id='1680'> +7.6145754e+04 </wgt>
<wgt id='1681'> +7.5638525e+04 </wgt>
<wgt id='1682'> +7.5158629e+04 </wgt>
<wgt id='1683'> +7.5678933e+04 </wgt>
<wgt id='1684'> +7.5555026e+04 </wgt>
<wgt id='1685'> +7.6540030e+04 </wgt>
<wgt id='1686'> +7.4589426e+04 </wgt>
<wgt id='1687'> +7.6430030e+04 </wgt>
<wgt id='1688'> +7.4420685e+04 </wgt>
<wgt id='1689'> +7.5086159e+04 </wgt>
<wgt id='1690'> +7.6508355e+04 </wgt>
<wgt id='1691'> +7.5752942e+04 </wgt>
<wgt id='1692'> +7.5495644e+04 </wgt>
<wgt id='1693'> +7.6333549e+04 </wgt>
<wgt id='1694'> +7.5339444e+04 </wgt>
<wgt id='1695'> +7.5606502e+04 </wgt>
<wgt id='1696'> +7.5614906e+04 </wgt>
<wgt id='1697'> +7.5926140e+04 </wgt>
<wgt id='1698'> +7.5587454e+04 </wgt>
<wgt id='1699'> +7.4749467e+04 </wgt>
<wgt id='1700'> +7.6672040e+04 </wgt>
<wgt id='1701'> +7.5312947e+04 </wgt>
<wgt id='1702'> +7.6093954e+04 </wgt>
<wgt id='1703'> +7.5666728e+04 </wgt>
<wgt id='1704'> +7.6009499e+04 </wgt>
<wgt id='1705'> +7.5449560e+04 </wgt>
<wgt id='1706'> +7.5750031e+04 </wgt>
<wgt id='1707'> +7.4390283e+04 </wgt>
<wgt id='1708'> +7.6510633e+04 </wgt>
<wgt id='1709'> +7.5173444e+04 </wgt>
<wgt id='1710'> +7.6244675e+04 </wgt>
<wgt id='1711'> +7.5137669e+04 </wgt>
<wgt id='1712'> +7.5975796e+04 </wgt>
<wgt id='1713'> +7.6041397e+04 </wgt>
<wgt id='1714'> +7.4964337e+04 </wgt>
<wgt id='1715'> +7.3707837e+04 </wgt>
<wgt id='1716'> +7.5457390e+04 </wgt>
<wgt id='1717'> +7.2585808e+04 </wgt>
<wgt id='1718'> +7.2712032e+04 </wgt>
<wgt id='1719'> +7.2423484e+04 </wgt>
<wgt id='1720'> +7.2573321e+04 </wgt>
<wgt id='1721'> +7.2597211e+04 </wgt>
<wgt id='1722'> +7.2561012e+04 </wgt>
<wgt id='1723'> +7.2626302e+04 </wgt>
<wgt id='1724'> +7.2732025e+04 </wgt>
<wgt id='1725'> +7.2466898e+04 </wgt>
<wgt id='1726'> +7.2445103e+04 </wgt>
<wgt id='1727'> +7.2730855e+04 </wgt>
<wgt id='1728'> +7.2036990e+04 </wgt>
<wgt id='1729'> +7.3118958e+04 </wgt>
<wgt id='1730'> +7.2676999e+04 </wgt>
<wgt id='1731'> +7.2520591e+04 </wgt>
<wgt id='1732'> +7.2976665e+04 </wgt>
<wgt id='1733'> +7.2976665e+04 </wgt>
<wgt id='1734'> +7.2471148e+04 </wgt>
<wgt id='1735'> +7.2659555e+04 </wgt>
<wgt id='1736'> +7.2516208e+04 </wgt>
<wgt id='1737'> +7.2681407e+04 </wgt>
<wgt id='1738'> +7.2866100e+04 </wgt>
<wgt id='1739'> +7.2077117e+04 </wgt>
<wgt id='1740'> +7.2474573e+04 </wgt>
<wgt id='1741'> +7.2850735e+04 </wgt>
<wgt id='1742'> +7.2786445e+04 </wgt>
<wgt id='1743'> +7.2350953e+04 </wgt>
<wgt id='1744'> +7.2468393e+04 </wgt>
<wgt id='1745'> +7.2904059e+04 </wgt>
<wgt id='1746'> +7.2066737e+04 </wgt>
<wgt id='1747'> +7.2856361e+04 </wgt>
<wgt id='1748'> +7.2713517e+04 </wgt>
<wgt id='1749'> +7.2105296e+04 </wgt>
<wgt id='1750'> +7.2524828e+04 </wgt>
<wgt id='1751'> +7.2650639e+04 </wgt>
<wgt id='1752'> +7.2551110e+04 </wgt>
<wgt id='1753'> +7.2624889e+04 </wgt>
<wgt id='1754'> +7.2640930e+04 </wgt>
<wgt id='1755'> +7.2546785e+04 </wgt>
<wgt id='1756'> +7.2220465e+04 </wgt>
<wgt id='1757'> +7.3504123e+04 </wgt>
<wgt id='1758'> +7.2884860e+04 </wgt>
<wgt id='1759'> +7.2129635e+04 </wgt>
<wgt id='1760'> +7.3066234e+04 </wgt>
<wgt id='1761'> +7.2180065e+04 </wgt>
<wgt id='1762'> +7.2548252e+04 </wgt>
<wgt id='1763'> +7.2562108e+04 </wgt>
<wgt id='1764'> +7.2461700e+04 </wgt>
<wgt id='1765'> +7.3131622e+04 </wgt>
<wgt id='1766'> +7.2530229e+04 </wgt>
<wgt id='1767'> +7.2729438e+04 </wgt>
<wgt id='1768'> +7.2549046e+04 </wgt>
<wgt id='1769'> +7.2643034e+04 </wgt>
<wgt id='1770'> +7.2368171e+04 </wgt>
<wgt id='1771'> +7.2867710e+04 </wgt>
<wgt id='1772'> +7.2750801e+04 </wgt>
<wgt id='1773'> +7.2352164e+04 </wgt>
<wgt id='1774'> +7.2372544e+04 </wgt>
<wgt id='1775'> +7.2712595e+04 </wgt>
<wgt id='1776'> +7.2761573e+04 </wgt>
<wgt id='1777'> +7.2513462e+04 </wgt>
<wgt id='1778'> +7.2584290e+04 </wgt>
<wgt id='1779'> +7.2589873e+04 </wgt>
<wgt id='1780'> +7.2994457e+04 </wgt>
<wgt id='1781'> +7.2665686e+04 </wgt>
<wgt id='1782'> +7.2585808e+04 </wgt>
<wgt id='1783'> +7.2568667e+04 </wgt>
<wgt id='1784'> +7.3618719e+04 </wgt>
<wgt id='1785'> +7.3550088e+04 </wgt>
<wgt id='1786'> +7.2659673e+04 </wgt>
<wgt id='1787'> +7.3636673e+04 </wgt>
<wgt id='1788'> +7.3562040e+04 </wgt>
<wgt id='1789'> +7.3667692e+04 </wgt>
<wgt id='1790'> +7.3468798e+04 </wgt>
<wgt id='1791'> +7.3658971e+04 </wgt>
<wgt id='1792'> +7.3203213e+04 </wgt>
<wgt id='1793'> +7.3856801e+04 </wgt>
<wgt id='1794'> +7.3836355e+04 </wgt>
<wgt id='1795'> +7.2951467e+04 </wgt>
<wgt id='1796'> +7.3671049e+04 </wgt>
<wgt id='1797'> +7.3525133e+04 </wgt>
<wgt id='1798'> +7.3642879e+04 </wgt>
<wgt id='1799'> +7.4108560e+04 </wgt>
<wgt id='1800'> +7.3929025e+04 </wgt>
<wgt id='1801'> +7.4293488e+04 </wgt>
<wgt id='1802'> +7.4172110e+04 </wgt>
<wgt id='1803'> +7.3685774e+04 </wgt>
<wgt id='1804'> +7.3319317e+04 </wgt>
<wgt id='1805'> +7.3684458e+04 </wgt>
<wgt id='1806'> +7.3461691e+04 </wgt>
<wgt id='1807'> +7.3661990e+04 </wgt>
<wgt id='1808'> +7.3646738e+04 </wgt>
<wgt id='1809'> +7.3275544e+04 </wgt>
<wgt id='1810'> +7.3564404e+04 </wgt>
<wgt id='1811'> +7.3477164e+04 </wgt>
<wgt id='1812'> +7.3653138e+04 </wgt>
<wgt id='1813'> +7.3650306e+04 </wgt>
<wgt id='1814'> +7.3518719e+04 </wgt>
<wgt id='1815'> +7.3540131e+04 </wgt>
<wgt id='1816'> +7.3612506e+04 </wgt>
<wgt id='1817'> +7.3300517e+04 </wgt>
<wgt id='1818'> +7.3631751e+04 </wgt>
<wgt id='1819'> +7.3433859e+04 </wgt>
<wgt id='1820'> +7.3616281e+04 </wgt>
<wgt id='1821'> +7.3475413e+04 </wgt>
<wgt id='1822'> +7.3379667e+04 </wgt>
<wgt id='1823'> +7.3618354e+04 </wgt>
<wgt id='1824'> +7.3697175e+04 </wgt>
<wgt id='1825'> +7.3682361e+04 </wgt>
<wgt id='1826'> +7.3737895e+04 </wgt>
<wgt id='1827'> +8.2706824e+04 </wgt>
<wgt id='1828'> +8.2858035e+04 </wgt>
<wgt id='1829'> +8.2590803e+04 </wgt>
<wgt id='1830'> +8.2795547e+04 </wgt>
<wgt id='1831'> +8.2652177e+04 </wgt>
<wgt id='1832'> +8.2719760e+04 </wgt>
<wgt id='1833'> +8.2727600e+04 </wgt>
<wgt id='1834'> +8.2374100e+04 </wgt>
<wgt id='1835'> +8.3058489e+04 </wgt>
<wgt id='1836'> +8.3021284e+04 </wgt>
<wgt id='1837'> +8.2414256e+04 </wgt>
<wgt id='1838'> +8.2832962e+04 </wgt>
<wgt id='1839'> +8.2612584e+04 </wgt>
<wgt id='1840'> +8.2384634e+04 </wgt>
<wgt id='1841'> +8.3072627e+04 </wgt>
<wgt id='1842'> +8.2738922e+04 </wgt>
<wgt id='1843'> +8.2994376e+04 </wgt>
<wgt id='1844'> +8.2807046e+04 </wgt>
<wgt id='1845'> +8.2622038e+04 </wgt>
<wgt id='1846'> +8.2852749e+04 </wgt>
<wgt id='1847'> +8.2584972e+04 </wgt>
<wgt id='1848'> +8.2085471e+04 </wgt>
<wgt id='1849'> +8.3277710e+04 </wgt>
<wgt id='1850'> +8.3010829e+04 </wgt>
<wgt id='1851'> +8.2451361e+04 </wgt>
<wgt id='1852'> +8.2357195e+04 </wgt>
<wgt id='1853'> +8.2900115e+04 </wgt>
<wgt id='1854'> +8.2438351e+04 </wgt>
<wgt id='1855'> +8.2851736e+04 </wgt>
<wgt id='1856'> +7.2583864e+04 </wgt>
<wgt id='1857'> +7.2576585e+04 </wgt>
<wgt id='1858'> +7.2578715e+04 </wgt>
<wgt id='1859'> +7.2583047e+04 </wgt>
<wgt id='1860'> +7.2585012e+04 </wgt>
<wgt id='1861'> +7.2628720e+04 </wgt>
<wgt id='1862'> +7.2340870e+04 </wgt>
<wgt id='1863'> +7.2557698e+04 </wgt>
<wgt id='1864'> +7.2448296e+04 </wgt>
<wgt id='1865'> +7.2429740e+04 </wgt>
<wgt id='1866'> +7.2824449e+04 </wgt>
<wgt id='1867'> +7.2502104e+04 </wgt>
<wgt id='1868'> +7.2530432e+04 </wgt>
<wgt id='1869'> +7.2653293e+04 </wgt>
<wgt id='1870'> +7.2496088e+04 </wgt>
<wgt id='1871'> +7.2630004e+04 </wgt>
<wgt id='1872'> +7.2624621e+04 </wgt>
<wgt id='1873'> +7.2581670e+04 </wgt>
<wgt id='1874'> +7.2652556e+04 </wgt>
<wgt id='1875'> +7.2631708e+04 </wgt>
<wgt id='1876'> +7.2279993e+04 </wgt>
<wgt id='1877'> +7.2488427e+04 </wgt>
<wgt id='1878'> +7.2422455e+04 </wgt>
<wgt id='1879'> +7.2777051e+04 </wgt>
<wgt id='1880'> +7.2779906e+04 </wgt>
<wgt id='1881'> +7.2802561e+04 </wgt>
<wgt id='1882'> +7.2533647e+04 </wgt>
<wgt id='1883'> +7.2633518e+04 </wgt>
<wgt id='1884'> +7.2360874e+04 </wgt>
<wgt id='1885'> +7.2041588e+04 </wgt>
<wgt id='1886'> +6.9129494e+04 </wgt>
<wgt id='1887'> +6.5936855e+04 </wgt>
<wgt id='1888'> +6.4129690e+04 </wgt>
<wgt id='1889'> +6.7143214e+04 </wgt>
</rwgt>
</event>
<event npLO=" -1 " npNLO=" 0 ">
 5      0 +7.4519530e+04 3.16912670e+01 7.55820760e-03 1.19325900e-01
        2 -1    0    0  501    0 +0.0000000000e+00 +0.0000000000e+00 +1.2505691528e+02 1.2505691528e+02 0.0000000000e+00 0.0000e+00 -1.0000e+00
       -1 -1    0    0    0  501 +0.0000000000e+00 +0.0000000000e+00 -1.3344757812e+01 1.3344757812e+01 0.0000000000e+00 0.0000e+00 1.0000e+00
       24  2    1    2    0    0 +0.0000000000e+00 +0.0000000000e+00 +1.1171215747e+02 1.3840167309e+02 8.1703225080e+01 0.0000e+00 0.0000e+00
      -13  1    3    3    0    0 +2.6236724766e+01 +1.7775563193e+01 +1.2188865811e+01 3.3954452183e+01 0.0000000000e+00 0.0000e+00 1.0000e+00
       14  1    3    3    0    0 -2.6236724766e+01 -1.7775563193e+01 +9.9523291655e+01 1.0444722091e+02 0.0000000000e+00 0.0000e+00 -1.0000e+00
#aMCatNLO 1  0  0  2  1 0.38887545E+02 0.00000000E+00 -9  5  0 0.00000000E+00 0.00000000E+00 0.00000000E+00 0.00000000E+00 0.00000000E+00
<rwgt>
<wgt id='1001'> +7.4519530e+04 </wgt>
<wgt id='1002'> +7.7224677e+04 </wgt>
<wgt id='1003'> +7.1150849e+04 </wgt>
<wgt id='1004'> +8.2263447e+04 </wgt>
<wgt id='1005'> +8.5371525e+04 </wgt>
<wgt id='1006'> +7.8393002e+04 </wgt>
<wgt id='1007'> +6.5873956e+04 </wgt>
<wgt id='1008'> +6.8169845e+04 </wgt>
<wgt id='1009'> +6.3014919e+04 </wgt>
<wgt id='1010'> +7.4519530e+04 </wgt>
<wgt id='1011'> +7.4447438e+04 </wgt>
<wgt id='1012'> +7.4523363e+04 </wgt>
<wgt id='1013'> +7.4265474e+04 </wgt>
<wgt id='1014'> +7.4813059e+04 </wgt>
<wgt id='1015'> +7.4325288e+04 </wgt>
<wgt id='1016'> +7.4532019e+04 </wgt>
<wgt id='1017'> +7.4653723e+04 </wgt>
<wgt id='1018'> +7.4352218e+04 </wgt>
<wgt id='1019'> +7.4714826e+04 </wgt>
<wgt id='1020'> +7.4275985e+04 </wgt>
<wgt id='1021'> +7.4468096e+04 </wgt>
<wgt id='1022'> +7.4586367e+04 </wgt>
<wgt id='1023'> +7.4681772e+04 </wgt>
<wgt id='1024'> +7.4513878e+04 </wgt>
<wgt id='1025'> +7.5108978e+04 </wgt>
<wgt id='1026'> +7.4221254e+04 </wgt>
<wgt id='1027'> +7.4463745e+04 </wgt>
<wgt id='1028'> +7.4083019e+04 </wgt>
<wgt id='1029'> +7.4551600e+04 </wgt>
<wgt id='1030'> +7.4974203e+04 </wgt>
<wgt id='1031'> +7.4530869e+04 </wgt>
<wgt id='1032'> +7.4755984e+04 </wgt>
<wgt id='1033'> +7.4214627e+04 </wgt>
<wgt id='1034'> +7.4376301e+04 </wgt>
<wgt id='1035'> +7.4165822e+04 </wgt>
<wgt id='1036'> +7.4283249e+04 </wgt>
<wgt id='1037'> +7.5308747e+04 </wgt>
<wgt id='1038'> +7.4787497e+04 </wgt>
<wgt id='1039'> +7.4384119e+04 </wgt>
<wgt id='1040'> +7.4510036e+04 </wgt>
<wgt id='1041'> +7.4701418e+04 </wgt>
<wgt id='1042'> +7.4626248e+04 </wgt>
<wgt id='1043'> +7.4425769e+04 </wgt>
<wgt id='1044'> +7.4498521e+04 </wgt>
<wgt id='1045'> +7.4592455e+04 </wgt>
<wgt id='1046'> +7.4560916e+04 </wgt>
<wgt id='1047'> +7.4376484e+04 </wgt>
<wgt id='1048'> +7.4704078e+04 </wgt>
<wgt id='1049'> +7.4635587e+04 </wgt>
<wgt id='1050'> +7.4487090e+04 </wgt>
<wgt id='1051'> +7.4687991e+04 </wgt>
<wgt id='1052'> +7.4628557e+04 </wgt>
<wgt id='1053'> +7.4181599e+04 </wgt>
<wgt id='1054'> +7.4534782e+04 </wgt>
<wgt id='1055'> +7.4479865e+04 </wgt>
<wgt id='1056'> +7.4752000e+04 </wgt>
<wgt id='1057'> +7.4397123e+04 </wgt>
<wgt id='1058'> +7.4611221e+04 </wgt>
<wgt id='1059'> +7.4442624e+04 </wgt>
<wgt id='1060'> +7.4521808e+04 </wgt>
<wgt id='1061'> +7.4500596e+04 </wgt>
<wgt id='1062'> +7.4589766e+04 </wgt>
<wgt id='1063'> +7.4419064e+04 </wgt>
<wgt id='1064'> +7.4515432e+04 </wgt>
<wgt id='1065'> +7.4538399e+04 </wgt>
<wgt id='1066'> +7.4733427e+04 </wgt>
<wgt id='1067'> +7.4524614e+04 </wgt>
<wgt id='1068'> +7.4531862e+04 </wgt>
<wgt id='1069'> +7.4509328e+04 </wgt>
<wgt id='1070'> +7.4501098e+04 </wgt>
<wgt id='1071'> +7.4498590e+04 </wgt>
<wgt id='1072'> +7.4491588e+04 </wgt>
<wgt id='1073'> +7.4599689e+04 </wgt>
<wgt id='1074'> +7.4541261e+04 </wgt>
<wgt id='1075'> +7.4461942e+04 </wgt>
<wgt id='1076'> +7.4587821e+04 </wgt>
<wgt id='1077'> +7.4536049e+04 </wgt>
<wgt id='1078'> +7.4612851e+04 </wgt>
<wgt id='1079'> +7.4582710e+04 </wgt>
<wgt id='1080'> +7.4491816e+04 </wgt>
<wgt id='1081'> +7.4568779e+04 </wgt>
<wgt id='1082'> +7.4564976e+04 </wgt>
<wgt id='1083'> +7.4521456e+04 </wgt>
<wgt id='1084'> +7.4624273e+04 </wgt>
<wgt id='1085'> +7.4501546e+04 </wgt>
<wgt id='1086'> +7.4495892e+04 </wgt>
<wgt id='1087'> +7.4551825e+04 </wgt>
<wgt id='1088'> +7.4500552e+04 </wgt>
<wgt id='1089'> +7.4500002e+04 </wgt>
<wgt id='1090'> +7.4507056e+04 </wgt>
<wgt id='1091'> +7.4524032e+04 </wgt>
<wgt id='1092'> +7.4520237e+04 </wgt>
<wgt id='1093'> +7.4543639e+04 </wgt>
<wgt id='1094'> +7.4583146e+04 </wgt>
<wgt id='1095'> +7.4534223e+04 </wgt>
<wgt id='1096'> +7.4488853e+04 </wgt>
<wgt id='1097'> +7.4536741e+04 </wgt>
<wgt id='1098'> +7.4486448e+04 </wgt>
<wgt id='1099'> +7.4556901e+04 </wgt>
<wgt id='1100'> +7.4538539e+04 </wgt>
<wgt id='1101'> +7.4535471e+04 </wgt>
<wgt id='1102'> +7.4565515e+04 </wgt>
<wgt id='1103'> +7.4518482e+04 </wgt>
<wgt id='1104'> +7.4528521e+04 </wgt>
<wgt id='1105'> +7.4536674e+04 </wgt>
<wgt id='1106'> +7.4553616e+04 </wgt>
<wgt id='1107'> +7.4534463e+04 </wgt>
<wgt id='1108'> +7.4529321e+04 </wgt>
<wgt id='1109'> +7.4520702e+04 </wgt>
<wgt id='1110'> +7.4519530e+04 </wgt>
<wgt id='1111'> +7.4536897e+04 </wgt>
<wgt id='1112'> +7.4538387e+04 </wgt>
<wgt id='1113'> +7.4519530e+04 </wgt>
<wgt id='1114'> +7.8829361e+04 </wgt>
<wgt id='1115'> +7.4138199e+04 </wgt>
<wgt id='1116'> +6.8973406e+04 </wgt>
<wgt id='1117'> +7.3310184e+04 </wgt>
<wgt id='1118'> +7.4020537e+04 </wgt>
<wgt id='1119'> +7.6846276e+04 </wgt>
<wgt id='1120'> +7.4821313e+04 </wgt>
<wgt id='1121'> +7.1556312e+04 </wgt>
<wgt id='1122'> +7.2290649e+04 </wgt>
<wgt id='1123'> +7.4235015e+04 </wgt>
<wgt id='1124'> +7.4580751e+04 </wgt>
<wgt id='1125'> +7.2753604e+04 </wgt>
<wgt id='1126'> +7.4615508e+04 </wgt>
<wgt id='1127'> +7.3276904e+04 </wgt>
<wgt id='1128'> +7.4992045e+04 </wgt>
<wgt id='1129'> +7.5633186e+04 </wgt>
<wgt id='1130'> +7.7428771e+04 </wgt>
<wgt id='1131'> +7.4451320e+04 </wgt>
<wgt id='1132'> +7.4804044e+04 </wgt>
<wgt id='1133'> +7.1973229e+04 </wgt>
<wgt id='1134'> +7.2744845e+04 </wgt>
<wgt id='1135'> +7.5120694e+04 </wgt>
<wgt id='1136'> +7.6164572e+04 </wgt>
<wgt id='1137'> +7.4481885e+04 </wgt>
<wgt id='1138'> +7.2846101e+04 </wgt>
<wgt id='1139'> +7.4808629e+04 </wgt>
<wgt id='1140'> +7.7980891e+04 </wgt>
<wgt id='1141'> +7.4169289e+04 </wgt>
<wgt id='1142'> +7.6898886e+04 </wgt>
<wgt id='1143'> +7.5824969e+04 </wgt>
<wgt id='1144'> +7.4625799e+04 </wgt>
<wgt id='1145'> +7.3238942e+04 </wgt>
<wgt id='1146'> +7.5008294e+04 </wgt>
<wgt id='1147'> +7.3382738e+04 </wgt>
<wgt id='1148'> +7.5990300e+04 </wgt>
<wgt id='1149'> +7.3754550e+04 </wgt>
<wgt id='1150'> +7.4685717e+04 </wgt>
<wgt id='1151'> +7.3702979e+04 </wgt>
<wgt id='1152'> +7.2481394e+04 </wgt>
<wgt id='1153'> +7.3185668e+04 </wgt>
<wgt id='1154'> +7.4452813e+04 </wgt>
<wgt id='1155'> +7.5909471e+04 </wgt>
<wgt id='1156'> +7.6389803e+04 </wgt>
<wgt id='1157'> +7.5796640e+04 </wgt>
<wgt id='1158'> +7.4767263e+04 </wgt>
<wgt id='1159'> +7.6589280e+04 </wgt>
<wgt id='1160'> +7.5197911e+04 </wgt>
<wgt id='1161'> +7.2191635e+04 </wgt>
<wgt id='1162'> +7.6730191e+04 </wgt>
<wgt id='1163'> +7.6803822e+04 </wgt>
<wgt id='1164'> +7.3537716e+04 </wgt>
<wgt id='1165'> +7.3350876e+04 </wgt>
<wgt id='1166'> +7.5597246e+04 </wgt>
<wgt id='1167'> +7.6947585e+04 </wgt>
<wgt id='1168'> +7.3512532e+04 </wgt>
<wgt id='1169'> +7.4622622e+04 </wgt>
<wgt id='1170'> +7.6856553e+04 </wgt>
<wgt id='1171'> +7.3370560e+04 </wgt>
<wgt id='1172'> +7.4363230e+04 </wgt>
<wgt id='1173'> +7.4282885e+04 </wgt>
<wgt id='1174'> +7.5305989e+04 </wgt>
<wgt id='1175'> +7.4909171e+04 </wgt>
<wgt id='1176'> +7.5350918e+04 </wgt>
<wgt id='1177'> +7.1522490e+04 </wgt>
<wgt id='1178'> +7.6066251e+04 </wgt>
<wgt id='1179'> +7.4749413e+04 </wgt>
<wgt id='1180'> +7.5036957e+04 </wgt>
<wgt id='1181'> +7.5803831e+04 </wgt>
<wgt id='1182'> +7.5340743e+04 </wgt>
<wgt id='1183'> +7.5019537e+04 </wgt>
<wgt id='1184'> +7.3310245e+04 </wgt>
<wgt id='1185'> +7.7632003e+04 </wgt>
<wgt id='1186'> +7.0240411e+04 </wgt>
<wgt id='1187'> +7.1759684e+04 </wgt>
<wgt id='1188'> +7.3557011e+04 </wgt>
<wgt id='1189'> +7.5379387e+04 </wgt>
<wgt id='1190'> +7.2606559e+04 </wgt>
<wgt id='1191'> +7.4734218e+04 </wgt>
<wgt id='1192'> +7.3874693e+04 </wgt>
<wgt id='1193'> +7.5877860e+04 </wgt>
<wgt id='1194'> +7.4393115e+04 </wgt>
<wgt id='1195'> +7.5633186e+04 </wgt>
<wgt id='1196'> +7.4600566e+04 </wgt>
<wgt id='1197'> +7.3564554e+04 </wgt>
<wgt id='1198'> +7.3337386e+04 </wgt>
<wgt id='1199'> +7.7505666e+04 </wgt>
<wgt id='1200'> +7.4771174e+04 </wgt>
<wgt id='1201'> +7.6462760e+04 </wgt>
<wgt id='1202'> +7.1936421e+04 </wgt>
<wgt id='1203'> +7.4191654e+04 </wgt>
<wgt id='1204'> +7.4835444e+04 </wgt>
<wgt id='1205'> +7.3370106e+04 </wgt>
<wgt id='1206'> +7.4472351e+04 </wgt>
<wgt id='1207'> +7.6532310e+04 </wgt>
<wgt id='1208'> +7.3756966e+04 </wgt>
<wgt id='1209'> +7.3601416e+04 </wgt>
<wgt id='1210'> +7.4945154e+04 </wgt>
<wgt id='1211'> +7.3432235e+04 </wgt>
<wgt id='1212'> +7.2693669e+04 </wgt>
<wgt id='1213'> +7.4094186e+04 </wgt>
<wgt id='1214'> +7.4550589e+04 </wgt>
<wgt id='1215'> +7.5610917e+04 </wgt>
<wgt id='1216'> +7.5225143e+04 </wgt>
<wgt id='1217'> +7.4750492e+04 </wgt>
<wgt id='1218'> +7.4668898e+04 </wgt>
<wgt id='1219'> +7.4891220e+04 </wgt>
<wgt id='1220'> +7.4592485e+04 </wgt>
<wgt id='1221'> +7.4544463e+04 </wgt>
<wgt id='1222'> +7.4148370e+04 </wgt>
<wgt id='1223'> +7.3483076e+04 </wgt>
<wgt id='1224'> +7.3515223e+04 </wgt>
<wgt id='1225'> +7.3583952e+04 </wgt>
<wgt id='1226'> +7.3399956e+04 </wgt>
<wgt id='1227'> +7.3885463e+04 </wgt>
<wgt id='1228'> +7.3529896e+04 </wgt>
<wgt id='1229'> +7.3250663e+04 </wgt>
<wgt id='1230'> +7.3648046e+04 </wgt>
<wgt id='1231'> +7.3582256e+04 </wgt>
<wgt id='1232'> +7.3640383e+04 </wgt>
<wgt id='1233'> +7.3010406e+04 </wgt>
<wgt id='1234'> +7.3371303e+04 </wgt>
<wgt id='1235'> +7.3622066e+04 </wgt>
<wgt id='1236'> +7.3740646e+04 </wgt>
<wgt id='1237'> +7.3575700e+04 </wgt>
<wgt id='1238'> +7.3121992e+04 </wgt>
<wgt id='1239'> +7.4016303e+04 </wgt>
<wgt id='1240'> +7.3211801e+04 </wgt>
<wgt id='1241'> +7.3742058e+04 </wgt>
<wgt id='1242'> +7.3567960e+04 </wgt>
<wgt id='1243'> +7.3174748e+04 </wgt>
<wgt id='1244'> +7.3937519e+04 </wgt>
<wgt id='1245'> +7.3444881e+04 </wgt>
<wgt id='1246'> +7.3105925e+04 </wgt>
<wgt id='1247'> +7.4013322e+04 </wgt>
<wgt id='1248'> +7.3246732e+04 </wgt>
<wgt id='1249'> +7.3583884e+04 </wgt>
<wgt id='1250'> +7.3436385e+04 </wgt>
<wgt id='1251'> +7.3386047e+04 </wgt>
<wgt id='1252'> +7.4077876e+04 </wgt>
<wgt id='1253'> +7.3602467e+04 </wgt>
<wgt id='1254'> +7.3263396e+04 </wgt>
<wgt id='1255'> +7.3541596e+04 </wgt>
<wgt id='1256'> +7.3395624e+04 </wgt>
<wgt id='1257'> +7.3609394e+04 </wgt>
<wgt id='1258'> +7.3586358e+04 </wgt>
<wgt id='1259'> +7.3488911e+04 </wgt>
<wgt id='1260'> +7.3433510e+04 </wgt>
<wgt id='1261'> +7.3521272e+04 </wgt>
<wgt id='1262'> +7.3409049e+04 </wgt>
<wgt id='1263'> +7.3453587e+04 </wgt>
<wgt id='1264'> +7.3304184e+04 </wgt>
<wgt id='1265'> +7.3393481e+04 </wgt>
<wgt id='1266'> +7.3505258e+04 </wgt>
<wgt id='1267'> +7.3471405e+04 </wgt>
<wgt id='1268'> +7.3515882e+04 </wgt>
<wgt id='1269'> +7.3498552e+04 </wgt>
<wgt id='1270'> +7.3420192e+04 </wgt>
<wgt id='1271'> +7.3489042e+04 </wgt>
<wgt id='1272'> +7.3626848e+04 </wgt>
<wgt id='1273'> +7.3488182e+04 </wgt>
<wgt id='1274'> +7.3441011e+04 </wgt>
<wgt id='1275'> +7.3413094e+04 </wgt>
<wgt id='1276'> +7.3389223e+04 </wgt>
<wgt id='1277'> +7.3487498e+04 </wgt>
<wgt id='1278'> +7.3469925e+04 </wgt>
<wgt id='1279'> +7.3703187e+04 </wgt>
<wgt id='1280'> +7.3413964e+04 </wgt>
<wgt id='1281'> +7.3380035e+04 </wgt>
<wgt id='1282'> +7.3470098e+04 </wgt>
<wgt id='1283'> +7.3561545e+04 </wgt>
<wgt id='1284'> +7.3488014e+04 </wgt>
<wgt id='1285'> +7.3527197e+04 </wgt>
<wgt id='1286'> +7.3470969e+04 </wgt>
<wgt id='1287'> +7.3513172e+04 </wgt>
<wgt id='1288'> +7.3523363e+04 </wgt>
<wgt id='1289'> +7.3447760e+04 </wgt>
<wgt id='1290'> +7.3473166e+04 </wgt>
<wgt id='1291'> +7.3467232e+04 </wgt>
<wgt id='1292'> +7.3445351e+04 </wgt>
<wgt id='1293'> +7.3356819e+04 </wgt>
<wgt id='1294'> +7.3490194e+04 </wgt>
<wgt id='1295'> +7.3486169e+04 </wgt>
<wgt id='1296'> +7.3444470e+04 </wgt>
<wgt id='1297'> +7.3481977e+04 </wgt>
<wgt id='1298'> +7.3361476e+04 </wgt>
<wgt id='1299'> +7.3489280e+04 </wgt>
<wgt id='1300'> +7.3440754e+04 </wgt>
<wgt id='1301'> +7.3441936e+04 </wgt>
<wgt id='1302'> +7.3436752e+04 </wgt>
<wgt id='1303'> +7.3543495e+04 </wgt>
<wgt id='1304'> +7.3411177e+04 </wgt>
<wgt id='1305'> +7.3511649e+04 </wgt>
<wgt id='1306'> +7.3536321e+04 </wgt>
<wgt id='1307'> +7.3504792e+04 </wgt>
<wgt id='1308'> +7.3498407e+04 </wgt>
<wgt id='1309'> +7.3453638e+04 </wgt>
<wgt id='1310'> +7.3488937e+04 </wgt>
<wgt id='1311'> +7.3450339e+04 </wgt>
<wgt id='1312'> +7.3462331e+04 </wgt>
<wgt id='1313'> +7.3518160e+04 </wgt>
<wgt id='1314'> +7.3482529e+04 </wgt>
<wgt id='1315'> +7.3469188e+04 </wgt>
<wgt id='1316'> +7.3541724e+04 </wgt>
<wgt id='1317'> +7.3415544e+04 </wgt>
<wgt id='1318'> +7.3463611e+04 </wgt>
<wgt id='1319'> +7.3506981e+04 </wgt>
<wgt id='1320'> +7.3487005e+04 </wgt>
<wgt id='1321'> +7.3493768e+04 </wgt>
<wgt id='1322'> +7.3497537e+04 </wgt>
<wgt id='1323'> +7.3537318e+04 </wgt>
<wgt id='1324'> +7.3615307e+04 </wgt>
<wgt id='1325'> +7.3495418e+04 </wgt>
<wgt id='1326'> +7.1833248e+04 </wgt>
<wgt id='1327'> +6.8404092e+04 </wgt>
<wgt id='1328'> +7.4878330e+04 </wgt>
<wgt id='1329'> +7.4393145e+04 </wgt>
<wgt id='1330'> +7.5398468e+04 </wgt>
<wgt id='1331'> +7.4985897e+04 </wgt>
<wgt id='1332'> +7.4712993e+04 </wgt>
<wgt id='1333'> +7.4874256e+04 </wgt>
<wgt id='1334'> +7.3151619e+04 </wgt>
<wgt id='1335'> +7.4544325e+04 </wgt>
<wgt id='1336'> +7.5543751e+04 </wgt>
<wgt id='1337'> +7.4592775e+04 </wgt>
<wgt id='1338'> +7.5530350e+04 </wgt>
<wgt id='1339'> +7.5468737e+04 </wgt>
<wgt id='1340'> +7.3241042e+04 </wgt>
<wgt id='1341'> +7.4600420e+04 </wgt>
<wgt id='1342'> +7.5675338e+04 </wgt>
<wgt id='1343'> +7.5933536e+04 </wgt>
<wgt id='1344'> +7.5146818e+04 </wgt>
<wgt id='1345'> +7.5745749e+04 </wgt>
<wgt id='1346'> +7.5644597e+04 </wgt>
<wgt id='1347'> +7.5977226e+04 </wgt>
<wgt id='1348'> +7.3999522e+04 </wgt>
<wgt id='1349'> +7.5503753e+04 </wgt>
<wgt id='1350'> +7.4540879e+04 </wgt>
<wgt id='1351'> +7.5017010e+04 </wgt>
<wgt id='1352'> +7.5737278e+04 </wgt>
<wgt id='1353'> +7.6920932e+04 </wgt>
<wgt id='1354'> +7.4809831e+04 </wgt>
<wgt id='1355'> +7.4765076e+04 </wgt>
<wgt id='1356'> +7.4644574e+04 </wgt>
<wgt id='1357'> +7.4617573e+04 </wgt>
<wgt id='1358'> +7.5088987e+04 </wgt>
<wgt id='1359'> +7.4426536e+04 </wgt>
<wgt id='1360'> +7.6056043e+04 </wgt>
<wgt id='1361'> +7.6415588e+04 </wgt>
<wgt id='1362'> +7.6429377e+04 </wgt>
<wgt id='1363'> +7.5308525e+04 </wgt>
<wgt id='1364'> +7.5354434e+04 </wgt>
<wgt id='1365'> +7.4987673e+04 </wgt>
<wgt id='1366'> +7.4575900e+04 </wgt>
<wgt id='1367'> +7.6374828e+04 </wgt>
<wgt id='1368'> +7.4864670e+04 </wgt>
<wgt id='1369'> +7.3916109e+04 </wgt>
<wgt id='1370'> +7.3787690e+04 </wgt>
<wgt id='1371'> +7.5446638e+04 </wgt>
<wgt id='1372'> +7.6173007e+04 </wgt>
<wgt id='1373'> +7.4098218e+04 </wgt>
<wgt id='1374'> +7.5025376e+04 </wgt>
<wgt id='1375'> +7.4703693e+04 </wgt>
<wgt id='1376'> +7.4761059e+04 </wgt>
<wgt id='1377'> +7.4696612e+04 </wgt>
<wgt id='1378'> +7.3414576e+04 </wgt>
<wgt id='1379'> +7.5048907e+04 </wgt>
<wgt id='1380'> +7.5565945e+04 </wgt>
<wgt id='1381'> +7.5181576e+04 </wgt>
<wgt id='1382'> +7.3774987e+04 </wgt>
<wgt id='1383'> +7.4438403e+04 </wgt>
<wgt id='1384'> +7.5062092e+04 </wgt>
<wgt id='1385'> +7.3301438e+04 </wgt>
<wgt id='1386'> +7.5490911e+04 </wgt>
<wgt id='1387'> +7.3177908e+04 </wgt>
<wgt id='1388'> +7.4834879e+04 </wgt>
<wgt id='1389'> +7.4568134e+04 </wgt>
<wgt id='1390'> +7.3503076e+04 </wgt>
<wgt id='1391'> +7.4401255e+04 </wgt>
<wgt id='1392'> +7.4281100e+04 </wgt>
<wgt id='1393'> +7.2854889e+04 </wgt>
<wgt id='1394'> +7.4987673e+04 </wgt>
<wgt id='1395'> +7.5952666e+04 </wgt>
<wgt id='1396'> +7.4305503e+04 </wgt>
<wgt id='1397'> +7.5475911e+04 </wgt>
<wgt id='1398'> +7.5424398e+04 </wgt>
<wgt id='1399'> +7.5083972e+04 </wgt>
<wgt id='1400'> +7.6134699e+04 </wgt>
<wgt id='1401'> +7.5277033e+04 </wgt>
<wgt id='1402'> +7.5185993e+04 </wgt>
<wgt id='1403'> +7.5530339e+04 </wgt>
<wgt id='1404'> +7.5233718e+04 </wgt>
<wgt id='1405'> +7.4525357e+04 </wgt>
<wgt id='1406'> +7.3928764e+04 </wgt>
<wgt id='1407'> +7.6004655e+04 </wgt>
<wgt id='1408'> +7.5004398e+04 </wgt>
<wgt id='1409'> +7.3421307e+04 </wgt>
<wgt id='1410'> +7.5217492e+04 </wgt>
<wgt id='1411'> +7.5067369e+04 </wgt>
<wgt id='1412'> +7.5229680e+04 </wgt>
<wgt id='1413'> +7.5587707e+04 </wgt>
<wgt id='1414'> +7.3169915e+04 </wgt>
<wgt id='1415'> +7.4065837e+04 </wgt>
<wgt id='1416'> +7.4296553e+04 </wgt>
<wgt id='1417'> +7.5016288e+04 </wgt>
<wgt id='1418'> +7.5751664e+04 </wgt>
<wgt id='1419'> +7.4211783e+04 </wgt>
<wgt id='1420'> +7.3302373e+04 </wgt>
<wgt id='1421'> +7.5592898e+04 </wgt>
<wgt id='1422'> +7.4600850e+04 </wgt>
<wgt id='1423'> +7.5065584e+04 </wgt>
<wgt id='1424'> +7.2879626e+04 </wgt>
<wgt id='1425'> +7.4473834e+04 </wgt>
<wgt id='1426'> +7.4382210e+04 </wgt>
<wgt id='1427'> +7.5336263e+04 </wgt>
<wgt id='1428'> +7.5763153e+04 </wgt>
<wgt id='1429'> +7.5129834e+04 </wgt>
<wgt id='1430'> +7.4441432e+04 </wgt>
<wgt id='1431'> +7.4802658e+04 </wgt>
<wgt id='1432'> +7.4906675e+04 </wgt>
<wgt id='1433'> +7.4802088e+04 </wgt>
<wgt id='1434'> +7.4764100e+04 </wgt>
<wgt id='1435'> +7.4671933e+04 </wgt>
<wgt id='1436'> +7.4395287e+04 </wgt>
<wgt id='1437'> +7.5176093e+04 </wgt>
<wgt id='1438'> +7.4947657e+04 </wgt>
<wgt id='1439'> +7.4427801e+04 </wgt>
<wgt id='1440'> +7.4774210e+04 </wgt>
<wgt id='1441'> +7.4631870e+04 </wgt>
<wgt id='1442'> +7.4888915e+04 </wgt>
<wgt id='1443'> +7.4705855e+04 </wgt>
<wgt id='1444'> +7.4596547e+04 </wgt>
<wgt id='1445'> +7.4901423e+04 </wgt>
<wgt id='1446'> +7.4549713e+04 </wgt>
<wgt id='1447'> +7.4664991e+04 </wgt>
<wgt id='1448'> +7.4908955e+04 </wgt>
<wgt id='1449'> +7.4854739e+04 </wgt>
<wgt id='1450'> +7.4786982e+04 </wgt>
<wgt id='1451'> +7.4773931e+04 </wgt>
<wgt id='1452'> +7.4725214e+04 </wgt>
<wgt id='1453'> +7.4774163e+04 </wgt>
<wgt id='1454'> +7.4787183e+04 </wgt>
<wgt id='1455'> +7.4892823e+04 </wgt>
<wgt id='1456'> +7.4832164e+04 </wgt>
<wgt id='1457'> +7.4825380e+04 </wgt>
<wgt id='1458'> +7.4688224e+04 </wgt>
<wgt id='1459'> +7.4700566e+04 </wgt>
<wgt id='1460'> +7.4879746e+04 </wgt>
<wgt id='1461'> +7.4768558e+04 </wgt>
<wgt id='1462'> +7.4782587e+04 </wgt>
<wgt id='1463'> +7.4809890e+04 </wgt>
<wgt id='1464'> +7.4802559e+04 </wgt>
<wgt id='1465'> +7.4816377e+04 </wgt>
<wgt id='1466'> +7.4772270e+04 </wgt>
<wgt id='1467'> +7.4815704e+04 </wgt>
<wgt id='1468'> +7.4794512e+04 </wgt>
<wgt id='1469'> +7.4774682e+04 </wgt>
<wgt id='1470'> +7.4777560e+04 </wgt>
<wgt id='1471'> +7.4759855e+04 </wgt>
<wgt id='1472'> +7.4813129e+04 </wgt>
<wgt id='1473'> +7.4831861e+04 </wgt>
<wgt id='1474'> +7.4797066e+04 </wgt>
<wgt id='1475'> +7.4829408e+04 </wgt>
<wgt id='1476'> +7.4782473e+04 </wgt>
<wgt id='1477'> +7.4799060e+04 </wgt>
<wgt id='1478'> +7.4788708e+04 </wgt>
<wgt id='1479'> +7.4784138e+04 </wgt>
<wgt id='1480'> +7.4791173e+04 </wgt>
<wgt id='1481'> +7.4822017e+04 </wgt>
<wgt id='1482'> +7.5129834e+04 </wgt>
<wgt id='1483'> +7.4441432e+04 </wgt>
<wgt id='1484'> +7.4428390e+04 </wgt>
<wgt id='1485'> +7.4904184e+04 </wgt>
<wgt id='1486'> +7.4449205e+04 </wgt>
<wgt id='1487'> +7.4968309e+04 </wgt>
<wgt id='1488'> +7.4873858e+04 </wgt>
<wgt id='1489'> +7.4660640e+04 </wgt>
<wgt id='1490'> +7.3587731e+04 </wgt>
<wgt id='1491'> +7.2957334e+04 </wgt>
<wgt id='1492'> +7.4048812e+04 </wgt>
<wgt id='1493'> +7.5019127e+04 </wgt>
<wgt id='1494'> +7.3935002e+04 </wgt>
<wgt id='1495'> +7.3896147e+04 </wgt>
<wgt id='1496'> +7.4089827e+04 </wgt>
<wgt id='1497'> +7.3008687e+04 </wgt>
<wgt id='1498'> +7.5580177e+04 </wgt>
<wgt id='1499'> +7.4728321e+04 </wgt>
<wgt id='1500'> +7.3318466e+04 </wgt>
<wgt id='1501'> +7.4100001e+04 </wgt>
<wgt id='1502'> +7.5198722e+04 </wgt>
<wgt id='1503'> +7.3263308e+04 </wgt>
<wgt id='1504'> +7.4198541e+04 </wgt>
<wgt id='1505'> +7.4326570e+04 </wgt>
<wgt id='1506'> +7.5034354e+04 </wgt>
<wgt id='1507'> +7.4453311e+04 </wgt>
<wgt id='1508'> +7.2819822e+04 </wgt>
<wgt id='1509'> +7.3804837e+04 </wgt>
<wgt id='1510'> +7.2980744e+04 </wgt>
<wgt id='1511'> +7.3568858e+04 </wgt>
<wgt id='1512'> +7.4955955e+04 </wgt>
<wgt id='1513'> +7.3482109e+04 </wgt>
<wgt id='1514'> +7.4949029e+04 </wgt>
<wgt id='1515'> +7.4410473e+04 </wgt>
<wgt id='1516'> +7.4000226e+04 </wgt>
<wgt id='1517'> +7.4792358e+04 </wgt>
<wgt id='1518'> +7.4771820e+04 </wgt>
<wgt id='1519'> +7.4564610e+04 </wgt>
<wgt id='1520'> +7.3466239e+04 </wgt>
<wgt id='1521'> +7.4317010e+04 </wgt>
<wgt id='1522'> +7.4474493e+04 </wgt>
<wgt id='1523'> +7.4032580e+04 </wgt>
<wgt id='1524'> +7.5033646e+04 </wgt>
<wgt id='1525'> +7.5003947e+04 </wgt>
<wgt id='1526'> +7.4345011e+04 </wgt>
<wgt id='1527'> +7.4813879e+04 </wgt>
<wgt id='1528'> +7.4388429e+04 </wgt>
<wgt id='1529'> +7.4525562e+04 </wgt>
<wgt id='1530'> +7.3785409e+04 </wgt>
<wgt id='1531'> +7.3821040e+04 </wgt>
<wgt id='1532'> +7.3879749e+04 </wgt>
<wgt id='1533'> +7.4483631e+04 </wgt>
<wgt id='1534'> +7.4130000e+04 </wgt>
<wgt id='1535'> +7.4088257e+04 </wgt>
<wgt id='1536'> +7.4683765e+04 </wgt>
<wgt id='1537'> +7.3769276e+04 </wgt>
<wgt id='1538'> +7.5464471e+04 </wgt>
<wgt id='1539'> +7.5062663e+04 </wgt>
<wgt id='1540'> +7.4607736e+04 </wgt>
<wgt id='1541'> +7.5068191e+04 </wgt>
<wgt id='1542'> +7.4545226e+04 </wgt>
<wgt id='1543'> +7.4816436e+04 </wgt>
<wgt id='1544'> +7.5411298e+04 </wgt>
<wgt id='1545'> +7.4915046e+04 </wgt>
<wgt id='1546'> +7.4725361e+04 </wgt>
<wgt id='1547'> +7.5220748e+04 </wgt>
<wgt id='1548'> +7.4380990e+04 </wgt>
<wgt id='1549'> +7.4793378e+04 </wgt>
<wgt id='1550'> +7.4341885e+04 </wgt>
<wgt id='1551'> +7.5416733e+04 </wgt>
<wgt id='1552'> +7.4738968e+04 </wgt>
<wgt id='1553'> +7.5301180e+04 </wgt>
<wgt id='1554'> +7.2933396e+04 </wgt>
<wgt id='1555'> +7.4363168e+04 </wgt>
<wgt id='1556'> +7.4906490e+04 </wgt>
<wgt id='1557'> +7.4007130e+04 </wgt>
<wgt id='1558'> +7.4951140e+04 </wgt>
<wgt id='1559'> +7.5733639e+04 </wgt>
<wgt id='1560'> +7.5457846e+04 </wgt>
<wgt id='1561'> +7.4902978e+04 </wgt>
<wgt id='1562'> +7.4696089e+04 </wgt>
<wgt id='1563'> +7.4904257e+04 </wgt>
<wgt id='1564'> +7.4221776e+04 </wgt>
<wgt id='1565'> +7.3955161e+04 </wgt>
<wgt id='1566'> +7.4399912e+04 </wgt>
<wgt id='1567'> +7.5145250e+04 </wgt>
<wgt id='1568'> +7.4271114e+04 </wgt>
<wgt id='1569'> +7.5317416e+04 </wgt>
<wgt id='1570'> +7.4662763e+04 </wgt>
<wgt id='1571'> +7.5164379e+04 </wgt>
<wgt id='1572'> +7.4498700e+04 </wgt>
<wgt id='1573'> +7.4773827e+04 </wgt>
<wgt id='1574'> +7.2694930e+04 </wgt>
<wgt id='1575'> +7.4509787e+04 </wgt>
<wgt id='1576'> +7.5260499e+04 </wgt>
<wgt id='1577'> +7.4297406e+04 </wgt>
<wgt id='1578'> +7.4075630e+04 </wgt>
<wgt id='1579'> +7.4073997e+04 </wgt>
<wgt id='1580'> +7.5076065e+04 </wgt>
<wgt id='1581'> +7.4879363e+04 </wgt>
<wgt id='1582'> +7.5764071e+04 </wgt>
<wgt id='1583'> +7.2635635e+04 </wgt>
<wgt id='1584'> +7.2532407e+04 </wgt>
<wgt id='1585'> +7.2731077e+04 </wgt>
<wgt id='1586'> +7.0678100e+04 </wgt>
<wgt id='1587'> +7.5256811e+04 </wgt>
<wgt id='1588'> +7.5129834e+04 </wgt>
<wgt id='1589'> +7.4837604e+04 </wgt>
<wgt id='1590'> +7.4428036e+04 </wgt>
<wgt id='1591'> +7.4441432e+04 </wgt>
<wgt id='1592'> +7.4021418e+04 </wgt>
<wgt id='1593'> +7.3247046e+04 </wgt>
<wgt id='1594'> +7.2782733e+04 </wgt>
<wgt id='1595'> +7.2106698e+04 </wgt>
<wgt id='1596'> +7.2242956e+04 </wgt>
<wgt id='1597'> +7.4299656e+04 </wgt>
<wgt id='1598'> +7.1724694e+04 </wgt>
<wgt id='1599'> +7.4257450e+04 </wgt>
<wgt id='1600'> +7.0858083e+04 </wgt>
<wgt id='1601'> +7.5391013e+04 </wgt>
<wgt id='1602'> +7.2406481e+04 </wgt>
<wgt id='1603'> +7.4089293e+04 </wgt>
<wgt id='1604'> +7.3609937e+04 </wgt>
<wgt id='1605'> +7.3129912e+04 </wgt>
<wgt id='1606'> +7.3114644e+04 </wgt>
<wgt id='1607'> +7.2506640e+04 </wgt>
<wgt id='1608'> +7.2537520e+04 </wgt>
<wgt id='1609'> +7.2995460e+04 </wgt>
<wgt id='1610'> +7.1980220e+04 </wgt>
<wgt id='1611'> +7.4098042e+04 </wgt>
<wgt id='1612'> +7.4452987e+04 </wgt>
<wgt id='1613'> +7.0651254e+04 </wgt>
<wgt id='1614'> +7.3169151e+04 </wgt>
<wgt id='1615'> +7.3332532e+04 </wgt>
<wgt id='1616'> +7.2336830e+04 </wgt>
<wgt id='1617'> +7.3625127e+04 </wgt>
<wgt id='1618'> +7.3567345e+04 </wgt>
<wgt id='1619'> +7.2524617e+04 </wgt>
<wgt id='1620'> +7.2528767e+04 </wgt>
<wgt id='1621'> +7.3520888e+04 </wgt>
<wgt id='1622'> +7.3135675e+04 </wgt>
<wgt id='1623'> +7.2651242e+04 </wgt>
<wgt id='1624'> +7.3213237e+04 </wgt>
<wgt id='1625'> +7.2307695e+04 </wgt>
<wgt id='1626'> +7.2356357e+04 </wgt>
<wgt id='1627'> +7.3641922e+04 </wgt>
<wgt id='1628'> +7.4059473e+04 </wgt>
<wgt id='1629'> +7.2670272e+04 </wgt>
<wgt id='1630'> +7.4455622e+04 </wgt>
<wgt id='1631'> +7.1482589e+04 </wgt>
<wgt id='1632'> +7.1849921e+04 </wgt>
<wgt id='1633'> +7.4163248e+04 </wgt>
<wgt id='1634'> +7.4498261e+04 </wgt>
<wgt id='1635'> +7.1843485e+04 </wgt>
<wgt id='1636'> +7.2723534e+04 </wgt>
<wgt id='1637'> +7.3801801e+04 </wgt>
<wgt id='1638'> +7.2560735e+04 </wgt>
<wgt id='1639'> +7.3489420e+04 </wgt>
<wgt id='1640'> +7.4640472e+04 </wgt>
<wgt id='1641'> +7.1774990e+04 </wgt>
<wgt id='1642'> +7.3099513e+04 </wgt>
<wgt id='1643'> +7.2866088e+04 </wgt>
<wgt id='1644'> +7.3548305e+04 </wgt>
<wgt id='1645'> +7.1986901e+04 </wgt>
<wgt id='1646'> +7.3457091e+04 </wgt>
<wgt id='1647'> +7.3066481e+04 </wgt>
<wgt id='1648'> +7.3337614e+04 </wgt>
<wgt id='1649'> +7.3207437e+04 </wgt>
<wgt id='1650'> +7.3371189e+04 </wgt>
<wgt id='1651'> +7.3150311e+04 </wgt>
<wgt id='1652'> +7.2911954e+04 </wgt>
<wgt id='1653'> +7.3070161e+04 </wgt>
<wgt id='1654'> +7.3449887e+04 </wgt>
<wgt id='1655'> +7.3679562e+04 </wgt>
<wgt id='1656'> +7.4045665e+04 </wgt>
<wgt id='1657'> +7.3319836e+04 </wgt>
<wgt id='1658'> +7.3557784e+04 </wgt>
<wgt id='1659'> +7.3390444e+04 </wgt>
<wgt id='1660'> +7.4539246e+04 </wgt>
<wgt id='1661'> +7.4909424e+04 </wgt>
<wgt id='1662'> +7.2879443e+04 </wgt>
<wgt id='1663'> +7.3472912e+04 </wgt>
<wgt id='1664'> +7.3467457e+04 </wgt>
<wgt id='1665'> +7.3078749e+04 </wgt>
<wgt id='1666'> +7.4049666e+04 </wgt>
<wgt id='1667'> +7.3133551e+04 </wgt>
<wgt id='1668'> +7.4619557e+04 </wgt>
<wgt id='1669'> +7.4467753e+04 </wgt>
<wgt id='1670'> +7.3114304e+04 </wgt>
<wgt id='1671'> +7.4213223e+04 </wgt>
<wgt id='1672'> +7.3688940e+04 </wgt>
<wgt id='1673'> +7.4594845e+04 </wgt>
<wgt id='1674'> +7.3678879e+04 </wgt>
<wgt id='1675'> +7.4440911e+04 </wgt>
<wgt id='1676'> +7.3705327e+04 </wgt>
<wgt id='1677'> +7.3248560e+04 </wgt>
<wgt id='1678'> +7.4539413e+04 </wgt>
<wgt id='1679'> +7.3737465e+04 </wgt>
<wgt id='1680'> +7.4960185e+04 </wgt>
<wgt id='1681'> +7.3367296e+04 </wgt>
<wgt id='1682'> +7.4092211e+04 </wgt>
<wgt id='1683'> +7.4799771e+04 </wgt>
<wgt id='1684'> +7.3317165e+04 </wgt>
<wgt id='1685'> +7.4701994e+04 </wgt>
<wgt id='1686'> +7.3088076e+04 </wgt>
<wgt id='1687'> +7.4894981e+04 </wgt>
<wgt id='1688'> +7.2628929e+04 </wgt>
<wgt id='1689'> +7.4920057e+04 </wgt>
<wgt id='1690'> +7.3390783e+04 </wgt>
<wgt id='1691'> +7.3550048e+04 </wgt>
<wgt id='1692'> +7.3841835e+04 </wgt>
<wgt id='1693'> +7.5298649e+04 </wgt>
<wgt id='1694'> +7.3207585e+04 </wgt>
<wgt id='1695'> +7.3983351e+04 </wgt>
<wgt id='1696'> +7.3752910e+04 </wgt>
<wgt id='1697'> +7.4818499e+04 </wgt>
<wgt id='1698'> +7.3352857e+04 </wgt>
<wgt id='1699'> +7.2548283e+04 </wgt>
<wgt id='1700'> +7.5835053e+04 </wgt>
<wgt id='1701'> +7.3691016e+04 </wgt>
<wgt id='1702'> +7.4493361e+04 </wgt>
<wgt id='1703'> +7.4406905e+04 </wgt>
<wgt id='1704'> +7.3971135e+04 </wgt>
<wgt id='1705'> +7.2825711e+04 </wgt>
<wgt id='1706'> +7.4870855e+04 </wgt>
<wgt id='1707'> +7.2668417e+04 </wgt>
<wgt id='1708'> +7.4970748e+04 </wgt>
<wgt id='1709'> +7.3584011e+04 </wgt>
<wgt id='1710'> +7.4674896e+04 </wgt>
<wgt id='1711'> +7.2929725e+04 </wgt>
<wgt id='1712'> +7.4414346e+04 </wgt>
<wgt id='1713'> +7.3630084e+04 </wgt>
<wgt id='1714'> +7.4141038e+04 </wgt>
<wgt id='1715'> +7.1724169e+04 </wgt>
<wgt id='1716'> +7.4400901e+04 </wgt>
<wgt id='1717'> +7.0249621e+04 </wgt>
<wgt id='1718'> +7.0308829e+04 </wgt>
<wgt id='1719'> +7.0172596e+04 </wgt>
<wgt id='1720'> +6.9906694e+04 </wgt>
<wgt id='1721'> +7.0563615e+04 </wgt>
<wgt id='1722'> +7.0032548e+04 </wgt>
<wgt id='1723'> +7.0605950e+04 </wgt>
<wgt id='1724'> +7.0538088e+04 </wgt>
<wgt id='1725'> +7.0015329e+04 </wgt>
<wgt id='1726'> +7.0160706e+04 </wgt>
<wgt id='1727'> +7.0341101e+04 </wgt>
<wgt id='1728'> +6.9659372e+04 </wgt>
<wgt id='1729'> +7.0822780e+04 </wgt>
<wgt id='1730'> +7.0425878e+04 </wgt>
<wgt id='1731'> +7.0124387e+04 </wgt>
<wgt id='1732'> +7.0546605e+04 </wgt>
<wgt id='1733'> +7.0546605e+04 </wgt>
<wgt id='1734'> +7.0277075e+04 </wgt>
<wgt id='1735'> +7.0227456e+04 </wgt>
<wgt id='1736'> +7.0202456e+04 </wgt>
<wgt id='1737'> +7.0318944e+04 </wgt>
<wgt id='1738'> +7.0487876e+04 </wgt>
<wgt id='1739'> +6.9820478e+04 </wgt>
<wgt id='1740'> +7.0179145e+04 </wgt>
<wgt id='1741'> +7.0418884e+04 </wgt>
<wgt id='1742'> +7.0399885e+04 </wgt>
<wgt id='1743'> +7.0085429e+04 </wgt>
<wgt id='1744'> +7.0108997e+04 </wgt>
<wgt id='1745'> +7.0632912e+04 </wgt>
<wgt id='1746'> +7.0120948e+04 </wgt>
<wgt id='1747'> +7.0308155e+04 </wgt>
<wgt id='1748'> +7.0382008e+04 </wgt>
<wgt id='1749'> +6.9765098e+04 </wgt>
<wgt id='1750'> +7.0233444e+04 </wgt>
<wgt id='1751'> +7.0266385e+04 </wgt>
<wgt id='1752'> +6.9974611e+04 </wgt>
<wgt id='1753'> +7.0611342e+04 </wgt>
<wgt id='1754'> +7.0320537e+04 </wgt>
<wgt id='1755'> +7.0206841e+04 </wgt>
<wgt id='1756'> +7.0029105e+04 </wgt>
<wgt id='1757'> +7.0826735e+04 </wgt>
<wgt id='1758'> +7.0603372e+04 </wgt>
<wgt id='1759'> +6.9851370e+04 </wgt>
<wgt id='1760'> +7.0725598e+04 </wgt>
<wgt id='1761'> +6.9872431e+04 </wgt>
<wgt id='1762'> +7.0208064e+04 </wgt>
<wgt id='1763'> +7.0016611e+04 </wgt>
<wgt id='1764'> +7.0114710e+04 </wgt>
<wgt id='1765'> +7.0882704e+04 </wgt>
<wgt id='1766'> +7.0208134e+04 </wgt>
<wgt id='1767'> +7.0322003e+04 </wgt>
<wgt id='1768'> +7.0114370e+04 </wgt>
<wgt id='1769'> +7.0359909e+04 </wgt>
<wgt id='1770'> +7.0031858e+04 </wgt>
<wgt id='1771'> +7.0291889e+04 </wgt>
<wgt id='1772'> +7.0498725e+04 </wgt>
<wgt id='1773'> +7.0099423e+04 </wgt>
<wgt id='1774'> +6.9843743e+04 </wgt>
<wgt id='1775'> +7.0515784e+04 </wgt>
<wgt id='1776'> +7.0262468e+04 </wgt>
<wgt id='1777'> +7.0260598e+04 </wgt>
<wgt id='1778'> +6.9805857e+04 </wgt>
<wgt id='1779'> +7.0277841e+04 </wgt>
<wgt id='1780'> +7.1027303e+04 </wgt>
<wgt id='1781'> +7.0400177e+04 </wgt>
<wgt id='1782'> +7.0249621e+04 </wgt>
<wgt id='1783'> +7.0237485e+04 </wgt>
<wgt id='1784'> +7.2321399e+04 </wgt>
<wgt id='1785'> +7.2613739e+04 </wgt>
<wgt id='1786'> +7.0833200e+04 </wgt>
<wgt id='1787'> +7.2353990e+04 </wgt>
<wgt id='1788'> +7.2098564e+04 </wgt>
<wgt id='1789'> +7.2419835e+04 </wgt>
<wgt id='1790'> +7.2733717e+04 </wgt>
<wgt id='1791'> +7.2530317e+04 </wgt>
<wgt id='1792'> +7.1780548e+04 </wgt>
<wgt id='1793'> +7.2680836e+04 </wgt>
<wgt id='1794'> +7.2358009e+04 </wgt>
<wgt id='1795'> +7.1875702e+04 </wgt>
<wgt id='1796'> +7.2417733e+04 </wgt>
<wgt id='1797'> +7.2458440e+04 </wgt>
<wgt id='1798'> +7.2599402e+04 </wgt>
<wgt id='1799'> +7.2804568e+04 </wgt>
<wgt id='1800'> +7.2445227e+04 </wgt>
<wgt id='1801'> +7.3651428e+04 </wgt>
<wgt id='1802'> +7.2972009e+04 </wgt>
<wgt id='1803'> +7.2416974e+04 </wgt>
<wgt id='1804'> +7.2468270e+04 </wgt>
<wgt id='1805'> +7.2302539e+04 </wgt>
<wgt id='1806'> +7.2315009e+04 </wgt>
<wgt id='1807'> +7.2307189e+04 </wgt>
<wgt id='1808'> +7.2375684e+04 </wgt>
<wgt id='1809'> +7.2408610e+04 </wgt>
<wgt id='1810'> +7.2292897e+04 </wgt>
<wgt id='1811'> +7.2360563e+04 </wgt>
<wgt id='1812'> +7.2272254e+04 </wgt>
<wgt id='1813'> +7.2207254e+04 </wgt>
<wgt id='1814'> +7.2463420e+04 </wgt>
<wgt id='1815'> +7.2228895e+04 </wgt>
<wgt id='1816'> +7.2342216e+04 </wgt>
<wgt id='1817'> +7.2379049e+04 </wgt>
<wgt id='1818'> +7.2297848e+04 </wgt>
<wgt id='1819'> +7.2203155e+04 </wgt>
<wgt id='1820'> +7.2367646e+04 </wgt>
<wgt id='1821'> +7.2366421e+04 </wgt>
<wgt id='1822'> +7.2204341e+04 </wgt>
<wgt id='1823'> +7.2356593e+04 </wgt>
<wgt id='1824'> +7.2332639e+04 </wgt>
<wgt id='1825'> +7.2335366e+04 </wgt>
<wgt id='1826'> +7.2565572e+04 </wgt>
<wgt id='1827'> +8.0029616e+04 </wgt>
<wgt id='1828'> +8.0223708e+04 </wgt>
<wgt id='1829'> +7.9855552e+04 </wgt>
<wgt id='1830'> +7.9967085e+04 </wgt>
<wgt id='1831'> +8.0111205e+04 </wgt>
<wgt id='1832'> +8.0159667e+04 </wgt>
<wgt id='1833'> +7.9918480e+04 </wgt>
<wgt id='1834'> +7.9722659e+04 </wgt>
<wgt id='1835'> +8.0339444e+04 </wgt>
<wgt id='1836'> +8.0289403e+04 </wgt>
<wgt id='1837'> +7.9782668e+04 </wgt>
<wgt id='1838'> +8.0020773e+04 </wgt>
<wgt id='1839'> +8.0056527e+04 </wgt>
<wgt id='1840'> +7.9867610e+04 </wgt>
<wgt id='1841'> +8.0213166e+04 </wgt>
<wgt id='1842'> +8.0002320e+04 </wgt>
<wgt id='1843'> +8.0154622e+04 </wgt>
<wgt id='1844'> +7.9978607e+04 </wgt>
<wgt id='1845'> +8.0081499e+04 </wgt>
<wgt id='1846'> +8.0073705e+04 </wgt>
<wgt id='1847'> +7.9997112e+04 </wgt>
<wgt id='1848'> +7.9465286e+04 </wgt>
<wgt id='1849'> +8.0511325e+04 </wgt>
<wgt id='1850'> +7.9980236e+04 </wgt>
<wgt id='1851'> +8.0107614e+04 </wgt>
<wgt id='1852'> +7.9930994e+04 </wgt>
<wgt id='1853'> +7.9988145e+04 </wgt>
<wgt id='1854'> +8.0014704e+04 </wgt>
<wgt id='1855'> +8.0056565e+04 </wgt>
<wgt id='1856'> +7.0444715e+04 </wgt>
<wgt id='1857'> +7.0435676e+04 </wgt>
<wgt id='1858'> +7.0410059e+04 </wgt>
<wgt id='1859'> +7.0485979e+04 </wgt>
<wgt id='1860'> +7.0446905e+04 </wgt>
<wgt id='1861'> +7.0554655e+04 </wgt>
<wgt id='1862'> +7.0120633e+04 </wgt>
<wgt id='1863'> +7.0524841e+04 </wgt>
<wgt id='1864'> +7.0323879e+04 </wgt>
<wgt id='1865'> +7.0297346e+04 </wgt>
<wgt id='1866'> +7.0598077e+04 </wgt>
<wgt id='1867'> +7.0421302e+04 </wgt>
<wgt id='1868'> +7.0402534e+04 </wgt>
<wgt id='1869'> +7.0543444e+04 </wgt>
<wgt id='1870'> +7.0349490e+04 </wgt>
<wgt id='1871'> +7.0562973e+04 </wgt>
<wgt id='1872'> +7.0367995e+04 </wgt>
<wgt id='1873'> +7.0454253e+04 </wgt>
<wgt id='1874'> +7.0501384e+04 </wgt>
<wgt id='1875'> +7.0530035e+04 </wgt>
<wgt id='1876'> +7.0267395e+04 </wgt>
<wgt id='1877'> +7.0302902e+04 </wgt>
<wgt id='1878'> +7.0351610e+04 </wgt>
<wgt id='1879'> +7.0489447e+04 </wgt>
<wgt id='1880'> +7.0555190e+04 </wgt>
<wgt id='1881'> +7.0588221e+04 </wgt>
<wgt id='1882'> +7.0421275e+04 </wgt>
<wgt id='1883'> +7.0527876e+04 </wgt>
<wgt id='1884'> +7.0358536e+04 </wgt>
<wgt id='1885'> +7.0109064e+04 </wgt>
<wgt id='1886'> +7.8088639e+04 </wgt>
<wgt id='1887'> +7.3787385e+04 </wgt>
<wgt id='1888'> +6.4554084e+04 </wgt>
<wgt id='1889'> +6.7432408e+04 </wgt>
</rwgt>
</event>
<event npLO=" -1 " npNLO=" 0 ">
 5      1 +7.4519530e+04 1.78083810e+01 7.55820760e-03 1.20290240e-01
        1 -1    0    0  501    0 +0.0000000000e+00 +0.0000000000e+00 +9.2328561537e+01 9.2328561537e+01 0.0000000000e+00 0.0000e+00 -1.0000e+00
       -2 -1    0    0    0  501 +0.0000000000e+00 +0.0000000000e+00 -1.7505410267e+01 1.7505410267e+01 0.0000000000e+00 0.0000e+00 1.0000e+00
      -24  2    1    2    0    0 +0.0000000000e+00 +0.0000000000e+00 +7.4823151271e+01 1.0983397180e+02 8.0405207519e+01 0.0000e+00 0.0000e+00
       13  1    3    3    0    0 +3.7467834077e+01 +5.6266124170e+00 +5.5776707752e+01 6.7428024480e+01 0.0000000000e+00 0.0000e+00 -1.0000e+00
      -14  1    3    3    0    0 -3.7467834077e+01 -5.6266124170e+00 +1.9046443519e+01 4.2405947324e+01 0.0000000000e+00 0.0000e+00 1.0000e+00
#aMCatNLO 1  0  0  2  1 0.48174074E+01 0.00000000E+00 -9  5  0 0.00000000E+00 0.00000000E+00 0.00000000E+00 0.00000000E+00 0.00000000E+00
<rwgt>
<wgt id='1001'> +7.4519530e+04 </wgt>
<wgt id='1002'> +7.1874878e+04 </wgt>
<wgt id='1003'> +7.7814778e+04 </wgt>
<wgt id='1004'> +8.2624950e+04 </wgt>
<wgt id='1005'> +7.9726343e+04 </wgt>
<wgt id='1006'> +8.6236621e+04 </wgt>
<wgt id='1007'> +6.5488073e+04 </wgt>
<wgt id='1008'> +6.3141777e+04 </wgt>
<wgt id='1009'> +6.8411564e+04 </wgt>
<wgt id='1010'> +7.4519530e+04 </wgt>
<wgt id='1011'> +7.4545013e+04 </wgt>
<wgt id='1012'> +7.4362888e+04 </wgt>
<wgt id='1013'> +7.4230542e+04 </wgt>
<wgt id='1014'> +7.4793942e+04 </wgt>
<wgt id='1015'> +7.4440985e+04 </wgt>
<wgt id='1016'> +7.4444037e+04 </wgt>
<wgt id='1017'> +7.4653631e+04 </wgt>
<wgt id='1018'> +7.4291176e+04 </wgt>
<wgt id='1019'> +7.4897797e+04 </wgt>
<wgt id='1020'> +7.4225406e+04 </wgt>
<wgt id='1021'> +7.4477941e+04 </wgt>
<wgt id='1022'> +7.4589081e+04 </wgt>
<wgt id='1023'> +7.4643715e+04 </wgt>
<wgt id='1024'> +7.4652782e+04 </wgt>
<wgt id='1025'> +7.5174420e+04 </wgt>
<wgt id='1026'> +7.4167208e+04 </wgt>
<wgt id='1027'> +7.4449824e+04 </wgt>
<wgt id='1028'> +7.3995575e+04 </wgt>
<wgt id='1029'> +7.4612134e+04 </wgt>
<wgt id='1030'> +7.4737612e+04 </wgt>
<wgt id='1031'> +7.4547769e+04 </wgt>
<wgt id='1032'> +7.4822308e+04 </wgt>
<wgt id='1033'> +7.4266275e+04 </wgt>
<wgt id='1034'> +7.4318173e+04 </wgt>
<wgt id='1035'> +7.4127604e+04 </wgt>
<wgt id='1036'> +7.4244966e+04 </wgt>
<wgt id='1037'> +7.5256758e+04 </wgt>
<wgt id='1038'> +7.4728645e+04 </wgt>
<wgt id='1039'> +7.4472751e+04 </wgt>
<wgt id='1040'> +7.4549707e+04 </wgt>
<wgt id='1041'> +7.4782649e+04 </wgt>
<wgt id='1042'> +7.4434907e+04 </wgt>
<wgt id='1043'> +7.4605146e+04 </wgt>
<wgt id='1044'> +7.4560329e+04 </wgt>
<wgt id='1045'> +7.4579631e+04 </wgt>
<wgt id='1046'> +7.4556147e+04 </wgt>
<wgt id='1047'> +7.4372028e+04 </wgt>
<wgt id='1048'> +7.4643170e+04 </wgt>
<wgt id='1049'> +7.4781641e+04 </wgt>
<wgt id='1050'> +7.4503732e+04 </wgt>
<wgt id='1051'> +7.4679841e+04 </wgt>
<wgt id='1052'> +7.4582261e+04 </wgt>
<wgt id='1053'> +7.4182203e+04 </wgt>
<wgt id='1054'> +7.4332073e+04 </wgt>
<wgt id='1055'> +7.4518731e+04 </wgt>
<wgt id='1056'> +7.4715366e+04 </wgt>
<wgt id='1057'> +7.4416963e+04 </wgt>
<wgt id='1058'> +7.4615650e+04 </wgt>
<wgt id='1059'> +7.4419204e+04 </wgt>
<wgt id='1060'> +7.4516066e+04 </wgt>
<wgt id='1061'> +7.4422840e+04 </wgt>
<wgt id='1062'> +7.4593993e+04 </wgt>
<wgt id='1063'> +7.4426519e+04 </wgt>
<wgt id='1064'> +7.4580033e+04 </wgt>
<wgt id='1065'> +7.4596367e+04 </wgt>
<wgt id='1066'> +7.4668600e+04 </wgt>
<wgt id='1067'> +7.4593752e+04 </wgt>
<wgt id='1068'> +7.4545361e+04 </wgt>
<wgt id='1069'> +7.4534506e+04 </wgt>
<wgt id='1070'> +7.4478917e+04 </wgt>
<wgt id='1071'> +7.4520175e+04 </wgt>
<wgt id='1072'> +7.4585304e+04 </wgt>
<wgt id='1073'> +7.4600513e+04 </wgt>
<wgt id='1074'> +7.4531261e+04 </wgt>
<wgt id='1075'> +7.4480838e+04 </wgt>
<wgt id='1076'> +7.4562053e+04 </wgt>
<wgt id='1077'> +7.4537978e+04 </wgt>
<wgt id='1078'> +7.4518102e+04 </wgt>
<wgt id='1079'> +7.4614432e+04 </wgt>
<wgt id='1080'> +7.4573767e+04 </wgt>
<wgt id='1081'> +7.4591752e+04 </wgt>
<wgt id='1082'> +7.4527507e+04 </wgt>
<wgt id='1083'> +7.4523912e+04 </wgt>
<wgt id='1084'> +7.4612133e+04 </wgt>
<wgt id='1085'> +7.4475216e+04 </wgt>
<wgt id='1086'> +7.4540708e+04 </wgt>
<wgt id='1087'> +7.4544518e+04 </wgt>
<wgt id='1088'> +7.4517589e+04 </wgt>
<wgt id='1089'> +7.4565908e+04 </wgt>
<wgt id='1090'> +7.4529662e+04 </wgt>
<wgt id='1091'> +7.4521679e+04 </wgt>
<wgt id='1092'> +7.4485080e+04 </wgt>
<wgt id='1093'> +7.4509545e+04 </wgt>
<wgt id='1094'> +7.4522836e+04 </wgt>
<wgt id='1095'> +7.4486437e+04 </wgt>
<wgt id='1096'> +7.4553802e+04 </wgt>
<wgt id='1097'> +7.4493759e+04 </wgt>
<wgt id='1098'> +7.4516229e+04 </wgt>
<wgt id='1099'> +7.4534405e+04 </wgt>
<wgt id='1100'> +7.4501218e+04 </wgt>
<wgt id='1101'> +7.4484000e+04 </wgt>
<wgt id='1102'> +7.4548207e+04 </wgt>
<wgt id='1103'> +7.4538954e+04 </wgt>
<wgt id='1104'> +7.4510055e+04 </wgt>
<wgt id='1105'> +7.4566450e+04 </wgt>
<wgt id='1106'> +7.4510665e+04 </wgt>
<wgt id='1107'> +7.4500890e+04 </wgt>
<wgt id='1108'> +7.4491907e+04 </wgt>
<wgt id='1109'> +7.4554165e+04 </wgt>
<wgt id='1110'> +7.4519532e+04 </wgt>
<wgt id='1111'> +7.3606230e+04 </wgt>
<wgt id='1112'> +7.5223048e+04 </wgt>
<wgt id='1113'> +7.4519532e+04 </wgt>
<wgt id='1114'> +8.0161104e+04 </wgt>
<wgt id='1115'> +7.4702296e+04 </wgt>
<wgt id='1116'> +7.0777305e+04 </wgt>
<wgt id='1117'> +7.2120883e+04 </wgt>
<wgt id='1118'> +7.3939520e+04 </wgt>
<wgt id='1119'> +7.7770587e+04 </wgt>
<wgt id='1120'> +7.5160608e+04 </wgt>
<wgt id='1121'> +7.2693309e+04 </wgt>
<wgt id='1122'> +7.2420590e+04 </wgt>
<wgt id='1123'> +7.3651200e+04 </wgt>
<wgt id='1124'> +7.4966468e+04 </wgt>
<wgt id='1125'> +7.2204531e+04 </wgt>
<wgt id='1126'> +7.4117842e+04 </wgt>
<wgt id='1127'> +7.3522639e+04 </wgt>
<wgt id='1128'> +7.5606658e+04 </wgt>
<wgt id='1129'> +7.5340031e+04 </wgt>
<wgt id='1130'> +7.6946283e+04 </wgt>
<wgt id='1131'> +7.3657191e+04 </wgt>
<wgt id='1132'> +7.4281242e+04 </wgt>
<wgt id='1133'> +7.1635844e+04 </wgt>
<wgt id='1134'> +7.1669757e+04 </wgt>
<wgt id='1135'> +7.4751294e+04 </wgt>
<wgt id='1136'> +7.7155314e+04 </wgt>
<wgt id='1137'> +7.3927592e+04 </wgt>
<wgt id='1138'> +7.2211956e+04 </wgt>
<wgt id='1139'> +7.5891617e+04 </wgt>
<wgt id='1140'> +7.7667794e+04 </wgt>
<wgt id='1141'> +7.4043647e+04 </wgt>
<wgt id='1142'> +7.5976737e+04 </wgt>
<wgt id='1143'> +7.6290132e+04 </wgt>
<wgt id='1144'> +7.5020136e+04 </wgt>
<wgt id='1145'> +7.3476744e+04 </wgt>
<wgt id='1146'> +7.5386930e+04 </wgt>
<wgt id='1147'> +7.2842416e+04 </wgt>
<wgt id='1148'> +7.6200098e+04 </wgt>
<wgt id='1149'> +7.3757628e+04 </wgt>
<wgt id='1150'> +7.4745148e+04 </wgt>
<wgt id='1151'> +7.3444085e+04 </wgt>
<wgt id='1152'> +7.3092458e+04 </wgt>
<wgt id='1153'> +7.3352555e+04 </wgt>
<wgt id='1154'> +7.3839063e+04 </wgt>
<wgt id='1155'> +7.5238155e+04 </wgt>
<wgt id='1156'> +7.6111590e+04 </wgt>
<wgt id='1157'> +7.5711460e+04 </wgt>
<wgt id='1158'> +7.5589210e+04 </wgt>
<wgt id='1159'> +7.5760092e+04 </wgt>
<wgt id='1160'> +7.4030968e+04 </wgt>
<wgt id='1161'> +7.4017075e+04 </wgt>
<wgt id='1162'> +7.6944370e+04 </wgt>
<wgt id='1163'> +7.5955772e+04 </wgt>
<wgt id='1164'> +7.4554882e+04 </wgt>
<wgt id='1165'> +7.3636258e+04 </wgt>
<wgt id='1166'> +7.4695694e+04 </wgt>
<wgt id='1167'> +7.6985888e+04 </wgt>
<wgt id='1168'> +7.4184793e+04 </wgt>
<wgt id='1169'> +7.5279470e+04 </wgt>
<wgt id='1170'> +7.7247718e+04 </wgt>
<wgt id='1171'> +7.3617133e+04 </wgt>
<wgt id='1172'> +7.4487713e+04 </wgt>
<wgt id='1173'> +7.5704691e+04 </wgt>
<wgt id='1174'> +7.4840196e+04 </wgt>
<wgt id='1175'> +7.5676872e+04 </wgt>
<wgt id='1176'> +7.4069789e+04 </wgt>
<wgt id='1177'> +7.2313471e+04 </wgt>
<wgt id='1178'> +7.5304159e+04 </wgt>
<wgt id='1179'> +7.5165917e+04 </wgt>
<wgt id='1180'> +7.5747887e+04 </wgt>
<wgt id='1181'> +7.6297283e+04 </wgt>
<wgt id='1182'> +7.4930094e+04 </wgt>
<wgt id='1183'> +7.4365999e+04 </wgt>
<wgt id='1184'> +7.3985371e+04 </wgt>
<wgt id='1185'> +7.7826450e+04 </wgt>
<wgt id='1186'> +7.0781785e+04 </wgt>
<wgt id='1187'> +7.1560909e+04 </wgt>
<wgt id='1188'> +7.3248325e+04 </wgt>
<wgt id='1189'> +7.6150058e+04 </wgt>
<wgt id='1190'> +7.1533764e+04 </wgt>
<wgt id='1191'> +7.4297951e+04 </wgt>
<wgt id='1192'> +7.3931186e+04 </wgt>
<wgt id='1193'> +7.5512223e+04 </wgt>
<wgt id='1194'> +7.3589251e+04 </wgt>
<wgt id='1195'> +7.5340031e+04 </wgt>
<wgt id='1196'> +7.4347661e+04 </wgt>
<wgt id='1197'> +7.3419555e+04 </wgt>
<wgt id='1198'> +7.3684514e+04 </wgt>
<wgt id='1199'> +7.7948838e+04 </wgt>
<wgt id='1200'> +7.4527692e+04 </wgt>
<wgt id='1201'> +7.6406776e+04 </wgt>
<wgt id='1202'> +7.0170650e+04 </wgt>
<wgt id='1203'> +7.3807430e+04 </wgt>
<wgt id='1204'> +7.4740136e+04 </wgt>
<wgt id='1205'> +7.3203681e+04 </wgt>
<wgt id='1206'> +7.3754414e+04 </wgt>
<wgt id='1207'> +7.7032172e+04 </wgt>
<wgt id='1208'> +7.3386067e+04 </wgt>
<wgt id='1209'> +7.3878222e+04 </wgt>
<wgt id='1210'> +7.5467242e+04 </wgt>
<wgt id='1211'> +7.3620149e+04 </wgt>
<wgt id='1212'> +7.1975303e+04 </wgt>
<wgt id='1213'> +7.4194698e+04 </wgt>
<wgt id='1214'> +7.4460760e+04 </wgt>
<wgt id='1215'> +7.2155198e+04 </wgt>
<wgt id='1216'> +7.2265855e+04 </wgt>
<wgt id='1217'> +7.2598852e+04 </wgt>
<wgt id='1218'> +7.3369669e+04 </wgt>
<wgt id='1219'> +7.4399883e+04 </wgt>
<wgt id='1220'> +7.4757989e+04 </wgt>
<wgt id='1221'> +7.5809426e+04 </wgt>
<wgt id='1222'> +7.6112174e+04 </wgt>
<wgt id='1223'> +7.3262829e+04 </wgt>
<wgt id='1224'> +7.3251289e+04 </wgt>
<wgt id='1225'> +7.3368205e+04 </wgt>
<wgt id='1226'> +7.3240567e+04 </wgt>
<wgt id='1227'> +7.3628344e+04 </wgt>
<wgt id='1228'> +7.3347777e+04 </wgt>
<wgt id='1229'> +7.3001499e+04 </wgt>
<wgt id='1230'> +7.3380986e+04 </wgt>
<wgt id='1231'> +7.3230532e+04 </wgt>
<wgt id='1232'> +7.3389202e+04 </wgt>
<wgt id='1233'> +7.2679701e+04 </wgt>
<wgt id='1234'> +7.3175127e+04 </wgt>
<wgt id='1235'> +7.3461681e+04 </wgt>
<wgt id='1236'> +7.3383785e+04 </wgt>
<wgt id='1237'> +7.3525757e+04 </wgt>
<wgt id='1238'> +7.2807051e+04 </wgt>
<wgt id='1239'> +7.3750820e+04 </wgt>
<wgt id='1240'> +7.3037632e+04 </wgt>
<wgt id='1241'> +7.3532879e+04 </wgt>
<wgt id='1242'> +7.3242577e+04 </wgt>
<wgt id='1243'> +7.2784658e+04 </wgt>
<wgt id='1244'> +7.3848953e+04 </wgt>
<wgt id='1245'> +7.3336375e+04 </wgt>
<wgt id='1246'> +7.3201347e+04 </wgt>
<wgt id='1247'> +7.3766956e+04 </wgt>
<wgt id='1248'> +7.2832815e+04 </wgt>
<wgt id='1249'> +7.3302527e+04 </wgt>
<wgt id='1250'> +7.3154947e+04 </wgt>
<wgt id='1251'> +7.3132953e+04 </wgt>
<wgt id='1252'> +7.3974573e+04 </wgt>
<wgt id='1253'> +7.3391480e+04 </wgt>
<wgt id='1254'> +7.2823197e+04 </wgt>
<wgt id='1255'> +7.3412288e+04 </wgt>
<wgt id='1256'> +7.3206269e+04 </wgt>
<wgt id='1257'> +7.3283259e+04 </wgt>
<wgt id='1258'> +7.3387601e+04 </wgt>
<wgt id='1259'> +7.3290979e+04 </wgt>
<wgt id='1260'> +7.3090583e+04 </wgt>
<wgt id='1261'> +7.3236895e+04 </wgt>
<wgt id='1262'> +7.3259468e+04 </wgt>
<wgt id='1263'> +7.3231179e+04 </wgt>
<wgt id='1264'> +7.3274239e+04 </wgt>
<wgt id='1265'> +7.3148175e+04 </wgt>
<wgt id='1266'> +7.3088636e+04 </wgt>
<wgt id='1267'> +7.3230149e+04 </wgt>
<wgt id='1268'> +7.3205900e+04 </wgt>
<wgt id='1269'> +7.3382276e+04 </wgt>
<wgt id='1270'> +7.3283872e+04 </wgt>
<wgt id='1271'> +7.3271732e+04 </wgt>
<wgt id='1272'> +7.3398621e+04 </wgt>
<wgt id='1273'> +7.3311663e+04 </wgt>
<wgt id='1274'> +7.3182230e+04 </wgt>
<wgt id='1275'> +7.3105661e+04 </wgt>
<wgt id='1276'> +7.3186696e+04 </wgt>
<wgt id='1277'> +7.3225177e+04 </wgt>
<wgt id='1278'> +7.3345847e+04 </wgt>
<wgt id='1279'> +7.3321010e+04 </wgt>
<wgt id='1280'> +7.3220053e+04 </wgt>
<wgt id='1281'> +7.3222317e+04 </wgt>
<wgt id='1282'> +7.3217314e+04 </wgt>
<wgt id='1283'> +7.3234832e+04 </wgt>
<wgt id='1284'> +7.3320606e+04 </wgt>
<wgt id='1285'> +7.3413044e+04 </wgt>
<wgt id='1286'> +7.3341867e+04 </wgt>
<wgt id='1287'> +7.3264113e+04 </wgt>
<wgt id='1288'> +7.3279307e+04 </wgt>
<wgt id='1289'> +7.3264144e+04 </wgt>
<wgt id='1290'> +7.3256814e+04 </wgt>
<wgt id='1291'> +7.3231120e+04 </wgt>
<wgt id='1292'> +7.3170000e+04 </wgt>
<wgt id='1293'> +7.3310012e+04 </wgt>
<wgt id='1294'> +7.3300472e+04 </wgt>
<wgt id='1295'> +7.3363713e+04 </wgt>
<wgt id='1296'> +7.3253053e+04 </wgt>
<wgt id='1297'> +7.3274007e+04 </wgt>
<wgt id='1298'> +7.3297352e+04 </wgt>
<wgt id='1299'> +7.3189377e+04 </wgt>
<wgt id='1300'> +7.3322997e+04 </wgt>
<wgt id='1301'> +7.3211763e+04 </wgt>
<wgt id='1302'> +7.3286753e+04 </wgt>
<wgt id='1303'> +7.3216810e+04 </wgt>
<wgt id='1304'> +7.3155239e+04 </wgt>
<wgt id='1305'> +7.3283017e+04 </wgt>
<wgt id='1306'> +7.3233124e+04 </wgt>
<wgt id='1307'> +7.3305049e+04 </wgt>
<wgt id='1308'> +7.3284839e+04 </wgt>
<wgt id='1309'> +7.3219043e+04 </wgt>
<wgt id='1310'> +7.3219905e+04 </wgt>
<wgt id='1311'> +7.3278856e+04 </wgt>
<wgt id='1312'> +7.3299918e+04 </wgt>
<wgt id='1313'> +7.3248114e+04 </wgt>
<wgt id='1314'> +7.3211134e+04 </wgt>
<wgt id='1315'> +7.3306627e+04 </wgt>
<wgt id='1316'> +7.3250565e+04 </wgt>
<wgt id='1317'> +7.3321509e+04 </wgt>
<wgt id='1318'> +7.3227706e+04 </wgt>
<wgt id='1319'> +7.3247389e+04 </wgt>
<wgt id='1320'> +7.3222674e+04 </wgt>
<wgt id='1321'> +7.3297344e+04 </wgt>
<wgt id='1322'> +7.3243738e+04 </wgt>
<wgt id='1323'> +7.3287045e+04 </wgt>
<wgt id='1324'> +7.2655794e+04 </wgt>
<wgt id='1325'> +7.4080783e+04 </wgt>
<wgt id='1326'> +7.1653355e+04 </wgt>
<wgt id='1327'> +6.7951678e+04 </wgt>
<wgt id='1328'> +7.4560871e+04 </wgt>
<wgt id='1329'> +7.3622559e+04 </wgt>
<wgt id='1330'> +7.6021943e+04 </wgt>
<wgt id='1331'> +7.3951342e+04 </wgt>
<wgt id='1332'> +7.5751446e+04 </wgt>
<wgt id='1333'> +7.4992731e+04 </wgt>
<wgt id='1334'> +7.3807371e+04 </wgt>
<wgt id='1335'> +7.2927885e+04 </wgt>
<wgt id='1336'> +7.5169298e+04 </wgt>
<wgt id='1337'> +7.4896318e+04 </wgt>
<wgt id='1338'> +7.4527157e+04 </wgt>
<wgt id='1339'> +7.3974341e+04 </wgt>
<wgt id='1340'> +7.2734483e+04 </wgt>
<wgt id='1341'> +7.3350680e+04 </wgt>
<wgt id='1342'> +7.6019339e+04 </wgt>
<wgt id='1343'> +7.5371228e+04 </wgt>
<wgt id='1344'> +7.5103416e+04 </wgt>
<wgt id='1345'> +7.5071323e+04 </wgt>
<wgt id='1346'> +7.4652282e+04 </wgt>
<wgt id='1347'> +7.5978883e+04 </wgt>
<wgt id='1348'> +7.1741529e+04 </wgt>
<wgt id='1349'> +7.4681096e+04 </wgt>
<wgt id='1350'> +7.5484677e+04 </wgt>
<wgt id='1351'> +7.4232428e+04 </wgt>
<wgt id='1352'> +7.5610124e+04 </wgt>
<wgt id='1353'> +7.7370311e+04 </wgt>
<wgt id='1354'> +7.4670954e+04 </wgt>
<wgt id='1355'> +7.4828221e+04 </wgt>
<wgt id='1356'> +7.5120123e+04 </wgt>
<wgt id='1357'> +7.3746018e+04 </wgt>
<wgt id='1358'> +7.5546843e+04 </wgt>
<wgt id='1359'> +7.3939948e+04 </wgt>
<wgt id='1360'> +7.6863931e+04 </wgt>
<wgt id='1361'> +7.7061605e+04 </wgt>
<wgt id='1362'> +7.6207359e+04 </wgt>
<wgt id='1363'> +7.4072114e+04 </wgt>
<wgt id='1364'> +7.4784873e+04 </wgt>
<wgt id='1365'> +7.4207256e+04 </wgt>
<wgt id='1366'> +7.4606173e+04 </wgt>
<wgt id='1367'> +7.6582691e+04 </wgt>
<wgt id='1368'> +7.4578242e+04 </wgt>
<wgt id='1369'> +7.3649989e+04 </wgt>
<wgt id='1370'> +7.2189771e+04 </wgt>
<wgt id='1371'> +7.4468709e+04 </wgt>
<wgt id='1372'> +7.6977218e+04 </wgt>
<wgt id='1373'> +7.3746278e+04 </wgt>
<wgt id='1374'> +7.4781079e+04 </wgt>
<wgt id='1375'> +7.4972284e+04 </wgt>
<wgt id='1376'> +7.4060929e+04 </wgt>
<wgt id='1377'> +7.5526588e+04 </wgt>
<wgt id='1378'> +7.4275518e+04 </wgt>
<wgt id='1379'> +7.4744918e+04 </wgt>
<wgt id='1380'> +7.5478306e+04 </wgt>
<wgt id='1381'> +7.4619817e+04 </wgt>
<wgt id='1382'> +7.2297588e+04 </wgt>
<wgt id='1383'> +7.3908318e+04 </wgt>
<wgt id='1384'> +7.4920404e+04 </wgt>
<wgt id='1385'> +7.0582756e+04 </wgt>
<wgt id='1386'> +7.5561880e+04 </wgt>
<wgt id='1387'> +7.3458305e+04 </wgt>
<wgt id='1388'> +7.4548930e+04 </wgt>
<wgt id='1389'> +7.5006054e+04 </wgt>
<wgt id='1390'> +7.0725844e+04 </wgt>
<wgt id='1391'> +7.3283245e+04 </wgt>
<wgt id='1392'> +7.3516511e+04 </wgt>
<wgt id='1393'> +7.2303894e+04 </wgt>
<wgt id='1394'> +7.4207256e+04 </wgt>
<wgt id='1395'> +7.4858916e+04 </wgt>
<wgt id='1396'> +7.6660685e+04 </wgt>
<wgt id='1397'> +7.5594094e+04 </wgt>
<wgt id='1398'> +7.5172464e+04 </wgt>
<wgt id='1399'> +7.4602423e+04 </wgt>
<wgt id='1400'> +7.6198498e+04 </wgt>
<wgt id='1401'> +7.4145412e+04 </wgt>
<wgt id='1402'> +7.5682222e+04 </wgt>
<wgt id='1403'> +7.5936381e+04 </wgt>
<wgt id='1404'> +7.5568865e+04 </wgt>
<wgt id='1405'> +7.2584474e+04 </wgt>
<wgt id='1406'> +7.4785736e+04 </wgt>
<wgt id='1407'> +7.6239952e+04 </wgt>
<wgt id='1408'> +7.5353937e+04 </wgt>
<wgt id='1409'> +7.3410381e+04 </wgt>
<wgt id='1410'> +7.5256558e+04 </wgt>
<wgt id='1411'> +7.4443563e+04 </wgt>
<wgt id='1412'> +7.5535526e+04 </wgt>
<wgt id='1413'> +7.4937276e+04 </wgt>
<wgt id='1414'> +7.0735459e+04 </wgt>
<wgt id='1415'> +7.2709484e+04 </wgt>
<wgt id='1416'> +7.3320449e+04 </wgt>
<wgt id='1417'> +7.4026330e+04 </wgt>
<wgt id='1418'> +7.6551850e+04 </wgt>
<wgt id='1419'> +7.4203830e+04 </wgt>
<wgt id='1420'> +7.1591280e+04 </wgt>
<wgt id='1421'> +7.5305014e+04 </wgt>
<wgt id='1422'> +7.4164060e+04 </wgt>
<wgt id='1423'> +7.3873158e+04 </wgt>
<wgt id='1424'> +7.3095481e+04 </wgt>
<wgt id='1425'> +7.5100759e+04 </wgt>
<wgt id='1426'> +7.4900190e+04 </wgt>
<wgt id='1427'> +7.5201537e+04 </wgt>
<wgt id='1428'> +7.6030871e+04 </wgt>
<wgt id='1429'> +7.4381427e+04 </wgt>
<wgt id='1430'> +7.4491452e+04 </wgt>
<wgt id='1431'> +7.4508131e+04 </wgt>
<wgt id='1432'> +7.4700353e+04 </wgt>
<wgt id='1433'> +7.4364955e+04 </wgt>
<wgt id='1434'> +7.4462307e+04 </wgt>
<wgt id='1435'> +7.4331571e+04 </wgt>
<wgt id='1436'> +7.3805174e+04 </wgt>
<wgt id='1437'> +7.4812955e+04 </wgt>
<wgt id='1438'> +7.4498532e+04 </wgt>
<wgt id='1439'> +7.3705980e+04 </wgt>
<wgt id='1440'> +7.4395181e+04 </wgt>
<wgt id='1441'> +7.4231392e+04 </wgt>
<wgt id='1442'> +7.4407888e+04 </wgt>
<wgt id='1443'> +7.4328057e+04 </wgt>
<wgt id='1444'> +7.4297505e+04 </wgt>
<wgt id='1445'> +7.4347097e+04 </wgt>
<wgt id='1446'> +7.4385741e+04 </wgt>
<wgt id='1447'> +7.4444063e+04 </wgt>
<wgt id='1448'> +7.4544794e+04 </wgt>
<wgt id='1449'> +7.4551162e+04 </wgt>
<wgt id='1450'> +7.4486216e+04 </wgt>
<wgt id='1451'> +7.4480626e+04 </wgt>
<wgt id='1452'> +7.4250017e+04 </wgt>
<wgt id='1453'> +7.4430805e+04 </wgt>
<wgt id='1454'> +7.4580716e+04 </wgt>
<wgt id='1455'> +7.4626049e+04 </wgt>
<wgt id='1456'> +7.4557537e+04 </wgt>
<wgt id='1457'> +7.4399996e+04 </wgt>
<wgt id='1458'> +7.4479606e+04 </wgt>
<wgt id='1459'> +7.4557712e+04 </wgt>
<wgt id='1460'> +7.4519394e+04 </wgt>
<wgt id='1461'> +7.4520743e+04 </wgt>
<wgt id='1462'> +7.4543598e+04 </wgt>
<wgt id='1463'> +7.4459983e+04 </wgt>
<wgt id='1464'> +7.4504691e+04 </wgt>
<wgt id='1465'> +7.4464318e+04 </wgt>
<wgt id='1466'> +7.4455454e+04 </wgt>
<wgt id='1467'> +7.4529209e+04 </wgt>
<wgt id='1468'> +7.4576067e+04 </wgt>
<wgt id='1469'> +7.4505239e+04 </wgt>
<wgt id='1470'> +7.4513696e+04 </wgt>
<wgt id='1471'> +7.4508268e+04 </wgt>
<wgt id='1472'> +7.4555905e+04 </wgt>
<wgt id='1473'> +7.4481332e+04 </wgt>
<wgt id='1474'> +7.4493927e+04 </wgt>
<wgt id='1475'> +7.4510486e+04 </wgt>
<wgt id='1476'> +7.4484829e+04 </wgt>
<wgt id='1477'> +7.4502463e+04 </wgt>
<wgt id='1478'> +7.4487816e+04 </wgt>
<wgt id='1479'> +7.4488345e+04 </wgt>
<wgt id='1480'> +7.4486025e+04 </wgt>
<wgt id='1481'> +7.4529455e+04 </wgt>
<wgt id='1482'> +7.4381427e+04 </wgt>
<wgt id='1483'> +7.4491452e+04 </wgt>
<wgt id='1484'> +7.4237910e+04 </wgt>
<wgt id='1485'> +7.4894047e+04 </wgt>
<wgt id='1486'> +7.4647101e+04 </wgt>
<wgt id='1487'> +7.3984067e+04 </wgt>
<wgt id='1488'> +7.4756786e+04 </wgt>
<wgt id='1489'> +7.3904750e+04 </wgt>
<wgt id='1490'> +7.2610468e+04 </wgt>
<wgt id='1491'> +7.2906847e+04 </wgt>
<wgt id='1492'> +7.3350624e+04 </wgt>
<wgt id='1493'> +7.4861454e+04 </wgt>
<wgt id='1494'> +7.3803863e+04 </wgt>
<wgt id='1495'> +7.2603188e+04 </wgt>
<wgt id='1496'> +7.3133963e+04 </wgt>
<wgt id='1497'> +7.2205892e+04 </wgt>
<wgt id='1498'> +7.5589177e+04 </wgt>
<wgt id='1499'> +7.4161373e+04 </wgt>
<wgt id='1500'> +7.2167465e+04 </wgt>
<wgt id='1501'> +7.3187928e+04 </wgt>
<wgt id='1502'> +7.4732868e+04 </wgt>
<wgt id='1503'> +7.2935259e+04 </wgt>
<wgt id='1504'> +7.3830034e+04 </wgt>
<wgt id='1505'> +7.4374534e+04 </wgt>
<wgt id='1506'> +7.4186919e+04 </wgt>
<wgt id='1507'> +7.4180025e+04 </wgt>
<wgt id='1508'> +7.1722558e+04 </wgt>
<wgt id='1509'> +7.5629059e+04 </wgt>
<wgt id='1510'> +7.5623691e+04 </wgt>
<wgt id='1511'> +7.5346607e+04 </wgt>
<wgt id='1512'> +7.4124005e+04 </wgt>
<wgt id='1513'> +7.2653782e+04 </wgt>
<wgt id='1514'> +7.4092425e+04 </wgt>
<wgt id='1515'> +7.3830670e+04 </wgt>
<wgt id='1516'> +7.3815576e+04 </wgt>
<wgt id='1517'> +7.4727176e+04 </wgt>
<wgt id='1518'> +7.3902038e+04 </wgt>
<wgt id='1519'> +7.3705378e+04 </wgt>
<wgt id='1520'> +7.5480476e+04 </wgt>
<wgt id='1521'> +7.4298447e+04 </wgt>
<wgt id='1522'> +7.4204098e+04 </wgt>
<wgt id='1523'> +7.3928916e+04 </wgt>
<wgt id='1524'> +7.5255525e+04 </wgt>
<wgt id='1525'> +7.4483332e+04 </wgt>
<wgt id='1526'> +7.3810703e+04 </wgt>
<wgt id='1527'> +7.4542282e+04 </wgt>
<wgt id='1528'> +7.4584439e+04 </wgt>
<wgt id='1529'> +7.4327943e+04 </wgt>
<wgt id='1530'> +7.3172640e+04 </wgt>
<wgt id='1531'> +7.4860997e+04 </wgt>
<wgt id='1532'> +7.3169064e+04 </wgt>
<wgt id='1533'> +7.6066534e+04 </wgt>
<wgt id='1534'> +7.3924814e+04 </wgt>
<wgt id='1535'> +7.4069539e+04 </wgt>
<wgt id='1536'> +7.4262917e+04 </wgt>
<wgt id='1537'> +7.5457901e+04 </wgt>
<wgt id='1538'> +7.4449833e+04 </wgt>
<wgt id='1539'> +7.4722478e+04 </wgt>
<wgt id='1540'> +7.4585564e+04 </wgt>
<wgt id='1541'> +7.5180567e+04 </wgt>
<wgt id='1542'> +7.3920924e+04 </wgt>
<wgt id='1543'> +7.4918397e+04 </wgt>
<wgt id='1544'> +7.4583063e+04 </wgt>
<wgt id='1545'> +7.5195513e+04 </wgt>
<wgt id='1546'> +7.3957977e+04 </wgt>
<wgt id='1547'> +7.4962724e+04 </wgt>
<wgt id='1548'> +7.4292742e+04 </wgt>
<wgt id='1549'> +7.4944321e+04 </wgt>
<wgt id='1550'> +7.5149377e+04 </wgt>
<wgt id='1551'> +7.5214965e+04 </wgt>
<wgt id='1552'> +7.4823018e+04 </wgt>
<wgt id='1553'> +7.5182368e+04 </wgt>
<wgt id='1554'> +7.4895701e+04 </wgt>
<wgt id='1555'> +7.3330373e+04 </wgt>
<wgt id='1556'> +7.2925802e+04 </wgt>
<wgt id='1557'> +7.3762098e+04 </wgt>
<wgt id='1558'> +7.4488677e+04 </wgt>
<wgt id='1559'> +7.5799971e+04 </wgt>
<wgt id='1560'> +7.5551749e+04 </wgt>
<wgt id='1561'> +7.5992345e+04 </wgt>
<wgt id='1562'> +7.4480003e+04 </wgt>
<wgt id='1563'> +7.5018057e+04 </wgt>
<wgt id='1564'> +7.5154836e+04 </wgt>
<wgt id='1565'> +7.5303103e+04 </wgt>
<wgt id='1566'> +7.2607906e+04 </wgt>
<wgt id='1567'> +7.3976525e+04 </wgt>
<wgt id='1568'> +7.3514201e+04 </wgt>
<wgt id='1569'> +7.4530177e+04 </wgt>
<wgt id='1570'> +7.4281443e+04 </wgt>
<wgt id='1571'> +7.4568069e+04 </wgt>
<wgt id='1572'> +7.4318786e+04 </wgt>
<wgt id='1573'> +7.4212837e+04 </wgt>
<wgt id='1574'> +7.2158046e+04 </wgt>
<wgt id='1575'> +7.3970290e+04 </wgt>
<wgt id='1576'> +7.5076165e+04 </wgt>
<wgt id='1577'> +7.3038441e+04 </wgt>
<wgt id='1578'> +7.4156185e+04 </wgt>
<wgt id='1579'> +7.2353857e+04 </wgt>
<wgt id='1580'> +7.5085706e+04 </wgt>
<wgt id='1581'> +7.5792614e+04 </wgt>
<wgt id='1582'> +7.5846563e+04 </wgt>
<wgt id='1583'> +7.4271031e+04 </wgt>
<wgt id='1584'> +7.0926797e+04 </wgt>
<wgt id='1585'> +7.2312721e+04 </wgt>
<wgt id='1586'> +6.8755446e+04 </wgt>
<wgt id='1587'> +7.4433597e+04 </wgt>
<wgt id='1588'> +7.4381427e+04 </wgt>
<wgt id='1589'> +7.4307528e+04 </wgt>
<wgt id='1590'> +7.4189251e+04 </wgt>
<wgt id='1591'> +7.4491452e+04 </wgt>
<wgt id='1592'> +7.4222912e+04 </wgt>
<wgt id='1593'> +7.3609283e+04 </wgt>
<wgt id='1594'> +7.2707956e+04 </wgt>
<wgt id='1595'> +7.2848259e+04 </wgt>
<wgt id='1596'> +7.3628430e+04 </wgt>
<wgt id='1597'> +7.3576388e+04 </wgt>
<wgt id='1598'> +7.2419563e+04 </wgt>
<wgt id='1599'> +7.4258955e+04 </wgt>
<wgt id='1600'> +7.1899046e+04 </wgt>
<wgt id='1601'> +7.5012215e+04 </wgt>
<wgt id='1602'> +7.1085039e+04 </wgt>
<wgt id='1603'> +7.5804171e+04 </wgt>
<wgt id='1604'> +7.4031798e+04 </wgt>
<wgt id='1605'> +7.3842726e+04 </wgt>
<wgt id='1606'> +7.2468210e+04 </wgt>
<wgt id='1607'> +7.4131811e+04 </wgt>
<wgt id='1608'> +7.3123348e+04 </wgt>
<wgt id='1609'> +7.2949841e+04 </wgt>
<wgt id='1610'> +7.3722929e+04 </wgt>
<wgt id='1611'> +7.3195969e+04 </wgt>
<wgt id='1612'> +7.4424104e+04 </wgt>
<wgt id='1613'> +7.1434660e+04 </wgt>
<wgt id='1614'> +7.3985298e+04 </wgt>
<wgt id='1615'> +7.2991149e+04 </wgt>
<wgt id='1616'> +7.3387588e+04 </wgt>
<wgt id='1617'> +7.2921120e+04 </wgt>
<wgt id='1618'> +7.3830098e+04 </wgt>
<wgt id='1619'> +7.3197667e+04 </wgt>
<wgt id='1620'> +7.2665413e+04 </wgt>
<wgt id='1621'> +7.3986239e+04 </wgt>
<wgt id='1622'> +7.3213808e+04 </wgt>
<wgt id='1623'> +7.2946303e+04 </wgt>
<wgt id='1624'> +7.3635226e+04 </wgt>
<wgt id='1625'> +7.2486633e+04 </wgt>
<wgt id='1626'> +7.2727910e+04 </wgt>
<wgt id='1627'> +7.3763206e+04 </wgt>
<wgt id='1628'> +7.3926464e+04 </wgt>
<wgt id='1629'> +7.3321886e+04 </wgt>
<wgt id='1630'> +7.3728364e+04 </wgt>
<wgt id='1631'> +7.2780316e+04 </wgt>
<wgt id='1632'> +7.3985582e+04 </wgt>
<wgt id='1633'> +7.2659200e+04 </wgt>
<wgt id='1634'> +7.4320463e+04 </wgt>
<wgt id='1635'> +7.2663323e+04 </wgt>
<wgt id='1636'> +7.2826998e+04 </wgt>
<wgt id='1637'> +7.4296523e+04 </wgt>
<wgt id='1638'> +7.2961831e+04 </wgt>
<wgt id='1639'> +7.3855872e+04 </wgt>
<wgt id='1640'> +7.4238407e+04 </wgt>
<wgt id='1641'> +7.2492899e+04 </wgt>
<wgt id='1642'> +7.2611834e+04 </wgt>
<wgt id='1643'> +7.4175618e+04 </wgt>
<wgt id='1644'> +7.4626584e+04 </wgt>
<wgt id='1645'> +7.1656660e+04 </wgt>
<wgt id='1646'> +7.3718467e+04 </wgt>
<wgt id='1647'> +7.3716920e+04 </wgt>
<wgt id='1648'> +7.4023242e+04 </wgt>
<wgt id='1649'> +7.3141858e+04 </wgt>
<wgt id='1650'> +7.3610931e+04 </wgt>
<wgt id='1651'> +7.3653569e+04 </wgt>
<wgt id='1652'> +7.3390762e+04 </wgt>
<wgt id='1653'> +7.3492136e+04 </wgt>
<wgt id='1654'> +7.3746632e+04 </wgt>
<wgt id='1655'> +7.3911639e+04 </wgt>
<wgt id='1656'> +7.4724061e+04 </wgt>
<wgt id='1657'> +7.4046838e+04 </wgt>
<wgt id='1658'> +7.3949272e+04 </wgt>
<wgt id='1659'> +7.5616318e+04 </wgt>
<wgt id='1660'> +7.4095613e+04 </wgt>
<wgt id='1661'> +7.5748749e+04 </wgt>
<wgt id='1662'> +7.3371877e+04 </wgt>
<wgt id='1663'> +7.3566052e+04 </wgt>
<wgt id='1664'> +7.4208214e+04 </wgt>
<wgt id='1665'> +7.3914046e+04 </wgt>
<wgt id='1666'> +7.4564309e+04 </wgt>
<wgt id='1667'> +7.4539999e+04 </wgt>
<wgt id='1668'> +7.4715898e+04 </wgt>
<wgt id='1669'> +7.5621511e+04 </wgt>
<wgt id='1670'> +7.3044298e+04 </wgt>
<wgt id='1671'> +7.5069832e+04 </wgt>
<wgt id='1672'> +7.4307361e+04 </wgt>
<wgt id='1673'> +7.4287977e+04 </wgt>
<wgt id='1674'> +7.4987817e+04 </wgt>
<wgt id='1675'> +7.4787279e+04 </wgt>
<wgt id='1676'> +7.4766487e+04 </wgt>
<wgt id='1677'> +7.4218458e+04 </wgt>
<wgt id='1678'> +7.5214461e+04 </wgt>
<wgt id='1679'> +7.4228402e+04 </wgt>
<wgt id='1680'> +7.5853571e+04 </wgt>
<wgt id='1681'> +7.5251058e+04 </wgt>
<wgt id='1682'> +7.3491225e+04 </wgt>
<wgt id='1683'> +7.4658915e+04 </wgt>
<wgt id='1684'> +7.4646832e+04 </wgt>
<wgt id='1685'> +7.4585921e+04 </wgt>
<wgt id='1686'> +7.4359950e+04 </wgt>
<wgt id='1687'> +7.5643597e+04 </wgt>
<wgt id='1688'> +7.3163998e+04 </wgt>
<wgt id='1689'> +7.5132602e+04 </wgt>
<wgt id='1690'> +7.4467453e+04 </wgt>
<wgt id='1691'> +7.4828110e+04 </wgt>
<wgt id='1692'> +7.3973840e+04 </wgt>
<wgt id='1693'> +7.7141212e+04 </wgt>
<wgt id='1694'> +7.2965341e+04 </wgt>
<wgt id='1695'> +7.4615082e+04 </wgt>
<wgt id='1696'> +7.4403367e+04 </wgt>
<wgt id='1697'> +7.5096765e+04 </wgt>
<wgt id='1698'> +7.4262016e+04 </wgt>
<wgt id='1699'> +7.3955237e+04 </wgt>
<wgt id='1700'> +7.5337237e+04 </wgt>
<wgt id='1701'> +7.3296549e+04 </wgt>
<wgt id='1702'> +7.6331568e+04 </wgt>
<wgt id='1703'> +7.5222735e+04 </wgt>
<wgt id='1704'> +7.4650244e+04 </wgt>
<wgt id='1705'> +7.4225684e+04 </wgt>
<wgt id='1706'> +7.4843392e+04 </wgt>
<wgt id='1707'> +7.3061365e+04 </wgt>
<wgt id='1708'> +7.5935862e+04 </wgt>
<wgt id='1709'> +7.4573862e+04 </wgt>
<wgt id='1710'> +7.4992814e+04 </wgt>
<wgt id='1711'> +7.4118937e+04 </wgt>
<wgt id='1712'> +7.4408248e+04 </wgt>
<wgt id='1713'> +7.4127701e+04 </wgt>
<wgt id='1714'> +7.4896956e+04 </wgt>
<wgt id='1715'> +7.2051695e+04 </wgt>
<wgt id='1716'> +7.4914629e+04 </wgt>
<wgt id='1717'> +6.9567084e+04 </wgt>
<wgt id='1718'> +6.9598444e+04 </wgt>
<wgt id='1719'> +6.9525986e+04 </wgt>
<wgt id='1720'> +6.9091741e+04 </wgt>
<wgt id='1721'> +7.0002711e+04 </wgt>
<wgt id='1722'> +6.9294323e+04 </wgt>
<wgt id='1723'> +7.0015052e+04 </wgt>
<wgt id='1724'> +6.9898761e+04 </wgt>
<wgt id='1725'> +6.9297681e+04 </wgt>
<wgt id='1726'> +6.9512706e+04 </wgt>
<wgt id='1727'> +6.9622999e+04 </wgt>
<wgt id='1728'> +6.9035611e+04 </wgt>
<wgt id='1729'> +7.0083557e+04 </wgt>
<wgt id='1730'> +6.9729354e+04 </wgt>
<wgt id='1731'> +6.9451751e+04 </wgt>
<wgt id='1732'> +6.9895698e+04 </wgt>
<wgt id='1733'> +6.9895698e+04 </wgt>
<wgt id='1734'> +6.9541869e+04 </wgt>
<wgt id='1735'> +6.9581796e+04 </wgt>
<wgt id='1736'> +6.9331509e+04 </wgt>
<wgt id='1737'> +6.9898489e+04 </wgt>
<wgt id='1738'> +6.9650157e+04 </wgt>
<wgt id='1739'> +6.9388934e+04 </wgt>
<wgt id='1740'> +6.9496565e+04 </wgt>
<wgt id='1741'> +6.9735436e+04 </wgt>
<wgt id='1742'> +6.9548158e+04 </wgt>
<wgt id='1743'> +6.9600226e+04 </wgt>
<wgt id='1744'> +6.9683371e+04 </wgt>
<wgt id='1745'> +6.9249250e+04 </wgt>
<wgt id='1746'> +6.9419942e+04 </wgt>
<wgt id='1747'> +6.9632784e+04 </wgt>
<wgt id='1748'> +6.9800864e+04 </wgt>
<wgt id='1749'> +6.8803555e+04 </wgt>
<wgt id='1750'> +6.9783708e+04 </wgt>
<wgt id='1751'> +6.9335732e+04 </wgt>
<wgt id='1752'> +6.9529361e+04 </wgt>
<wgt id='1753'> +6.9625528e+04 </wgt>
<wgt id='1754'> +6.9768100e+04 </wgt>
<wgt id='1755'> +6.9454322e+04 </wgt>
<wgt id='1756'> +6.9333225e+04 </wgt>
<wgt id='1757'> +7.0165851e+04 </wgt>
<wgt id='1758'> +6.9756701e+04 </wgt>
<wgt id='1759'> +6.9351152e+04 </wgt>
<wgt id='1760'> +7.0060605e+04 </wgt>
<wgt id='1761'> +6.9119998e+04 </wgt>
<wgt id='1762'> +6.9486342e+04 </wgt>
<wgt id='1763'> +6.9396430e+04 </wgt>
<wgt id='1764'> +6.9452410e+04 </wgt>
<wgt id='1765'> +7.0078107e+04 </wgt>
<wgt id='1766'> +6.9503614e+04 </wgt>
<wgt id='1767'> +6.9658346e+04 </wgt>
<wgt id='1768'> +6.9491674e+04 </wgt>
<wgt id='1769'> +6.9602829e+04 </wgt>
<wgt id='1770'> +6.9288734e+04 </wgt>
<wgt id='1771'> +6.9583248e+04 </wgt>
<wgt id='1772'> +6.9807344e+04 </wgt>
<wgt id='1773'> +6.9316031e+04 </wgt>
<wgt id='1774'> +6.8840793e+04 </wgt>
<wgt id='1775'> +7.0040697e+04 </wgt>
<wgt id='1776'> +6.9267835e+04 </wgt>
<wgt id='1777'> +6.9709968e+04 </wgt>
<wgt id='1778'> +6.9078835e+04 </wgt>
<wgt id='1779'> +6.9499935e+04 </wgt>
<wgt id='1780'> +7.0388791e+04 </wgt>
<wgt id='1781'> +6.9790461e+04 </wgt>
<wgt id='1782'> +6.9567084e+04 </wgt>
<wgt id='1783'> +6.9605182e+04 </wgt>
<wgt id='1784'> +7.1890288e+04 </wgt>
<wgt id='1785'> +7.2138066e+04 </wgt>
<wgt id='1786'> +6.9929262e+04 </wgt>
<wgt id='1787'> +7.1947818e+04 </wgt>
<wgt id='1788'> +7.1864364e+04 </wgt>
<wgt id='1789'> +7.1981601e+04 </wgt>
<wgt id='1790'> +7.2086338e+04 </wgt>
<wgt id='1791'> +7.2073000e+04 </wgt>
<wgt id='1792'> +7.1011744e+04 </wgt>
<wgt id='1793'> +7.2212253e+04 </wgt>
<wgt id='1794'> +7.2048568e+04 </wgt>
<wgt id='1795'> +7.1828903e+04 </wgt>
<wgt id='1796'> +7.1982593e+04 </wgt>
<wgt id='1797'> +7.2159576e+04 </wgt>
<wgt id='1798'> +7.2150064e+04 </wgt>
<wgt id='1799'> +7.2552801e+04 </wgt>
<wgt id='1800'> +7.2283504e+04 </wgt>
<wgt id='1801'> +7.2746830e+04 </wgt>
<wgt id='1802'> +7.2715302e+04 </wgt>
<wgt id='1803'> +7.1968455e+04 </wgt>
<wgt id='1804'> +7.1934683e+04 </wgt>
<wgt id='1805'> +7.1378461e+04 </wgt>
<wgt id='1806'> +7.1978043e+04 </wgt>
<wgt id='1807'> +7.1926563e+04 </wgt>
<wgt id='1808'> +7.1995372e+04 </wgt>
<wgt id='1809'> +7.1808008e+04 </wgt>
<wgt id='1810'> +7.1870600e+04 </wgt>
<wgt id='1811'> +7.1878977e+04 </wgt>
<wgt id='1812'> +7.1747505e+04 </wgt>
<wgt id='1813'> +7.1454225e+04 </wgt>
<wgt id='1814'> +7.2122571e+04 </wgt>
<wgt id='1815'> +7.1744916e+04 </wgt>
<wgt id='1816'> +7.1924913e+04 </wgt>
<wgt id='1817'> +7.1963279e+04 </wgt>
<wgt id='1818'> +7.1949783e+04 </wgt>
<wgt id='1819'> +7.1829532e+04 </wgt>
<wgt id='1820'> +7.1917944e+04 </wgt>
<wgt id='1821'> +7.1596837e+04 </wgt>
<wgt id='1822'> +7.1828467e+04 </wgt>
<wgt id='1823'> +7.1892877e+04 </wgt>
<wgt id='1824'> +7.2121450e+04 </wgt>
<wgt id='1825'> +7.1623936e+04 </wgt>
<wgt id='1826'> +7.2573878e+04 </wgt>
<wgt id='1827'> +7.3244973e+04 </wgt>
<wgt id='1828'> +7.3409675e+04 </wgt>
<wgt id='1829'> +7.3086452e+04 </wgt>
<wgt id='1830'> +7.3172569e+04 </wgt>
<wgt id='1831'> +7.3322728e+04 </wgt>
<wgt id='1832'> +7.3334630e+04 </wgt>
<wgt id='1833'> +7.3160777e+04 </wgt>
<wgt id='1834'> +7.2976436e+04 </wgt>
<wgt id='1835'> +7.3504908e+04 </wgt>
<wgt id='1836'> +7.3603781e+04 </wgt>
<wgt id='1837'> +7.2887781e+04 </wgt>
<wgt id='1838'> +7.3593784e+04 </wgt>
<wgt id='1839'> +7.2900552e+04 </wgt>
<wgt id='1840'> +7.3019427e+04 </wgt>
<wgt id='1841'> +7.3478268e+04 </wgt>
<wgt id='1842'> +7.3195041e+04 </wgt>
<wgt id='1843'> +7.3337944e+04 </wgt>
<wgt id='1844'> +7.3305815e+04 </wgt>
<wgt id='1845'> +7.3170005e+04 </wgt>
<wgt id='1846'> +7.3317566e+04 </wgt>
<wgt id='1847'> +7.3156394e+04 </wgt>
<wgt id='1848'> +7.2977273e+04 </wgt>
<wgt id='1849'> +7.3413284e+04 </wgt>
<wgt id='1850'> +7.3616632e+04 </wgt>
<wgt id='1851'> +7.2874241e+04 </wgt>
<wgt id='1852'> +7.3924216e+04 </wgt>
<wgt id='1853'> +7.2433061e+04 </wgt>
<wgt id='1854'> +7.3960175e+04 </wgt>
<wgt id='1855'> +7.2609237e+04 </wgt>
<wgt id='1856'> +7.1525080e+04 </wgt>
<wgt id='1857'> +7.1512198e+04 </wgt>
<wgt id='1858'> +7.1461685e+04 </wgt>
<wgt id='1859'> +7.1533131e+04 </wgt>
<wgt id='1860'> +7.1527026e+04 </wgt>
<wgt id='1861'> +7.1604865e+04 </wgt>
<wgt id='1862'> +7.1160634e+04 </wgt>
<wgt id='1863'> +7.1637538e+04 </wgt>
<wgt id='1864'> +7.1392512e+04 </wgt>
<wgt id='1865'> +7.1375277e+04 </wgt>
<wgt id='1866'> +7.1468911e+04 </wgt>
<wgt id='1867'> +7.1467431e+04 </wgt>
<wgt id='1868'> +7.1547359e+04 </wgt>
<wgt id='1869'> +7.1634021e+04 </wgt>
<wgt id='1870'> +7.1414254e+04 </wgt>
<wgt id='1871'> +7.1555598e+04 </wgt>
<wgt id='1872'> +7.1394702e+04 </wgt>
<wgt id='1873'> +7.1498771e+04 </wgt>
<wgt id='1874'> +7.1461435e+04 </wgt>
<wgt id='1875'> +7.1627091e+04 </wgt>
<wgt id='1876'> +7.1429519e+04 </wgt>
<wgt id='1877'> +7.1299724e+04 </wgt>
<wgt id='1878'> +7.1412505e+04 </wgt>
<wgt id='1879'> +7.1773010e+04 </wgt>
<wgt id='1880'> +7.1733353e+04 </wgt>
<wgt id='1881'> +7.1519887e+04 </wgt>
<wgt id='1882'> +7.1495475e+04 </wgt>
<wgt id='1883'> +7.1588845e+04 </wgt>
<wgt id='1884'> +7.1070245e+04 </wgt>
<wgt id='1885'> +7.1072889e+04 </wgt>
<wgt id='1886'> +8.2104545e+04 </wgt>
<wgt id='1887'> +8.3320406e+04 </wgt>
<wgt id='1888'> +6.7180742e+04 </wgt>
<wgt id='1889'> +7.4875340e+04 </wgt>
</rwgt>
</event>
<event npLO=" -1 " npNLO=" 0 ">
 5      1 +7.4519530e+04 3.00000000e+01 7.55820760e-03 1.19271390e-01
        1 -1    0    0  501    0 +0.0000000000e+00 +0.0000000000e+00 +9.2261780904e+01 9.2261780904e+01 0.0000000000e+00 0.0000e+00 -1.0000e+00
       -2 -1    0    0    0  501 +0.0000000000e+00 +0.0000000000e+00 -1.7201664806e+01 1.7201664806e+01 0.0000000000e+00 0.0000e+00 1.0000e+00
      -24  2    1    2    0    0 +0.0000000000e+00 +0.0000000000e+00 +7.5060116099e+01 1.0946344571e+02 7.9675748619e+01 0.0000e+00 0.0000e+00
       15  1    3    3    0    0 -2.0508865005e+01 +2.1548459644e+01 +7.3911394384e+01 7.9693171637e+01 1.7770000000e+00 0.0000e+00 -1.0000e+00
      -16  1    3    3    0    0 +2.0508865005e+01 -2.1548459644e+01 +1.1487217146e+00 2.9770274073e+01 0.0000000000e+00 0.0000e+00 1.0000e+00
#aMCatNLO 1  0  0  2  2 0.79070374E+02 0.00000000E+00 -9  5  0 0.00000000E+00 0.00000000E+00 0.00000000E+00 0.00000000E+00 0.00000000E+00
<rwgt>
<wgt id='1001'> +7.4519530e+04 </wgt>
<wgt id='1002'> +7.4577898e+04 </wgt>
<wgt id='1003'> +7.4446778e+04 </wgt>
<wgt id='1004'> +8.2564728e+04 </wgt>
<wgt id='1005'> +8.2695163e+04 </wgt>
<wgt id='1006'> +8.2402150e+04 </wgt>
<wgt id='1007'> +6.5593194e+04 </wgt>
<wgt id='1008'> +6.5593165e+04 </wgt>
<wgt id='1009'> +6.5593230e+04 </wgt>
<wgt id='1010'> +7.4519530e+04 </wgt>
<wgt id='1011'> +7.4528104e+04 </wgt>
<wgt id='1012'> +7.4349815e+04 </wgt>
<wgt id='1013'> +7.4162804e+04 </wgt>
<wgt id='1014'> +7.4831889e+04 </wgt>
<wgt id='1015'> +7.4383989e+04 </wgt>
<wgt id='1016'> +7.4465393e+04 </wgt>
<wgt id='1017'> +7.4657798e+04 </wgt>
<wgt id='1018'> +7.4259085e+04 </wgt>
<wgt id='1019'> +7.4935070e+04 </wgt>
<wgt id='1020'> +7.4168807e+04 </wgt>
<wgt id='1021'> +7.4476940e+04 </wgt>
<wgt id='1022'> +7.4612104e+04 </wgt>
<wgt id='1023'> +7.4690561e+04 </wgt>
<wgt id='1024'> +7.4701718e+04 </wgt>
<wgt id='1025'> +7.5220651e+04 </wgt>
<wgt id='1026'> +7.4195761e+04 </wgt>
<wgt id='1027'> +7.4488782e+04 </wgt>
<wgt id='1028'> +7.3931814e+04 </wgt>
<wgt id='1029'> +7.4564906e+04 </wgt>
<wgt id='1030'> +7.4709949e+04 </wgt>
<wgt id='1031'> +7.4517584e+04 </wgt>
<wgt id='1032'> +7.4863401e+04 </wgt>
<wgt id='1033'> +7.4241826e+04 </wgt>
<wgt id='1034'> +7.4268527e+04 </wgt>
<wgt id='1035'> +7.4128644e+04 </wgt>
<wgt id='1036'> +7.4220201e+04 </wgt>
<wgt id='1037'> +7.5289120e+04 </wgt>
<wgt id='1038'> +7.4728651e+04 </wgt>
<wgt id='1039'> +7.4502625e+04 </wgt>
<wgt id='1040'> +7.4591987e+04 </wgt>
<wgt id='1041'> +7.4802911e+04 </wgt>
<wgt id='1042'> +7.4429144e+04 </wgt>
<wgt id='1043'> +7.4585504e+04 </wgt>
<wgt id='1044'> +7.4546264e+04 </wgt>
<wgt id='1045'> +7.4579977e+04 </wgt>
<wgt id='1046'> +7.4570664e+04 </wgt>
<wgt id='1047'> +7.4411028e+04 </wgt>
<wgt id='1048'> +7.4684298e+04 </wgt>
<wgt id='1049'> +7.4785313e+04 </wgt>
<wgt id='1050'> +7.4535650e+04 </wgt>
<wgt id='1051'> +7.4694759e+04 </wgt>
<wgt id='1052'> +7.4599512e+04 </wgt>
<wgt id='1053'> +7.4167442e+04 </wgt>
<wgt id='1054'> +7.4328792e+04 </wgt>
<wgt id='1055'> +7.4527016e+04 </wgt>
<wgt id='1056'> +7.4698840e+04 </wgt>
<wgt id='1057'> +7.4422900e+04 </wgt>
<wgt id='1058'> +7.4614273e+04 </wgt>
<wgt id='1059'> +7.4422842e+04 </wgt>
<wgt id='1060'> +7.4514490e+04 </wgt>
<wgt id='1061'> +7.4417276e+04 </wgt>
<wgt id='1062'> +7.4603352e+04 </wgt>
<wgt id='1063'> +7.4411370e+04 </wgt>
<wgt id='1064'> +7.4571314e+04 </wgt>
<wgt id='1065'> +7.4591667e+04 </wgt>
<wgt id='1066'> +7.4684669e+04 </wgt>
<wgt id='1067'> +7.4593150e+04 </wgt>
<wgt id='1068'> +7.4535429e+04 </wgt>
<wgt id='1069'> +7.4535783e+04 </wgt>
<wgt id='1070'> +7.4471228e+04 </wgt>
<wgt id='1071'> +7.4514791e+04 </wgt>
<wgt id='1072'> +7.4583951e+04 </wgt>
<wgt id='1073'> +7.4624546e+04 </wgt>
<wgt id='1074'> +7.4518406e+04 </wgt>
<wgt id='1075'> +7.4476567e+04 </wgt>
<wgt id='1076'> +7.4566707e+04 </wgt>
<wgt id='1077'> +7.4547528e+04 </wgt>
<wgt id='1078'> +7.4518683e+04 </wgt>
<wgt id='1079'> +7.4614844e+04 </wgt>
<wgt id='1080'> +7.4578014e+04 </wgt>
<wgt id='1081'> +7.4596156e+04 </wgt>
<wgt id='1082'> +7.4531476e+04 </wgt>
<wgt id='1083'> +7.4532514e+04 </wgt>
<wgt id='1084'> +7.4615503e+04 </wgt>
<wgt id='1085'> +7.4477562e+04 </wgt>
<wgt id='1086'> +7.4538030e+04 </wgt>
<wgt id='1087'> +7.4544262e+04 </wgt>
<wgt id='1088'> +7.4519796e+04 </wgt>
<wgt id='1089'> +7.4561554e+04 </wgt>
<wgt id='1090'> +7.4527758e+04 </wgt>
<wgt id='1091'> +7.4522944e+04 </wgt>
<wgt id='1092'> +7.4486703e+04 </wgt>
<wgt id='1093'> +7.4508162e+04 </wgt>
<wgt id='1094'> +7.4526160e+04 </wgt>
<wgt id='1095'> +7.4484608e+04 </wgt>
<wgt id='1096'> +7.4559894e+04 </wgt>
<wgt id='1097'> +7.4491294e+04 </wgt>
<wgt id='1098'> +7.4518993e+04 </wgt>
<wgt id='1099'> +7.4535980e+04 </wgt>
<wgt id='1100'> +7.4500004e+04 </wgt>
<wgt id='1101'> +7.4484901e+04 </wgt>
<wgt id='1102'> +7.4552242e+04 </wgt>
<wgt id='1103'> +7.4538688e+04 </wgt>
<wgt id='1104'> +7.4511356e+04 </wgt>
<wgt id='1105'> +7.4567007e+04 </wgt>
<wgt id='1106'> +7.4513832e+04 </wgt>
<wgt id='1107'> +7.4497271e+04 </wgt>
<wgt id='1108'> +7.4491806e+04 </wgt>
<wgt id='1109'> +7.4558578e+04 </wgt>
<wgt id='1110'> +7.4519530e+04 </wgt>
<wgt id='1111'> +7.3885582e+04 </wgt>
<wgt id='1112'> +7.4990421e+04 </wgt>
<wgt id='1113'> +7.4519530e+04 </wgt>
<wgt id='1114'> +8.0713947e+04 </wgt>
<wgt id='1115'> +7.4566189e+04 </wgt>
<wgt id='1116'> +7.0728697e+04 </wgt>
<wgt id='1117'> +7.2072548e+04 </wgt>
<wgt id='1118'> +7.3703262e+04 </wgt>
<wgt id='1119'> +7.8154006e+04 </wgt>
<wgt id='1120'> +7.5077596e+04 </wgt>
<wgt id='1121'> +7.2504504e+04 </wgt>
<wgt id='1122'> +7.2149768e+04 </wgt>
<wgt id='1123'> +7.3580789e+04 </wgt>
<wgt id='1124'> +7.5104243e+04 </wgt>
<wgt id='1125'> +7.2080906e+04 </wgt>
<wgt id='1126'> +7.4009029e+04 </wgt>
<wgt id='1127'> +7.3794588e+04 </wgt>
<wgt id='1128'> +7.5550519e+04 </wgt>
<wgt id='1129'> +7.5236442e+04 </wgt>
<wgt id='1130'> +7.7086010e+04 </wgt>
<wgt id='1131'> +7.3517484e+04 </wgt>
<wgt id='1132'> +7.4281829e+04 </wgt>
<wgt id='1133'> +7.1300006e+04 </wgt>
<wgt id='1134'> +7.1487770e+04 </wgt>
<wgt id='1135'> +7.4570367e+04 </wgt>
<wgt id='1136'> +7.7079651e+04 </wgt>
<wgt id='1137'> +7.3703238e+04 </wgt>
<wgt id='1138'> +7.2038488e+04 </wgt>
<wgt id='1139'> +7.5999269e+04 </wgt>
<wgt id='1140'> +7.8057364e+04 </wgt>
<wgt id='1141'> +7.4118945e+04 </wgt>
<wgt id='1142'> +7.6135436e+04 </wgt>
<wgt id='1143'> +7.6582245e+04 </wgt>
<wgt id='1144'> +7.5237656e+04 </wgt>
<wgt id='1145'> +7.3461154e+04 </wgt>
<wgt id='1146'> +7.5613926e+04 </wgt>
<wgt id='1147'> +7.2906878e+04 </wgt>
<wgt id='1148'> +7.6254990e+04 </wgt>
<wgt id='1149'> +7.3742932e+04 </wgt>
<wgt id='1150'> +7.4277686e+04 </wgt>
<wgt id='1151'> +7.3469229e+04 </wgt>
<wgt id='1152'> +7.3169637e+04 </wgt>
<wgt id='1153'> +7.3585807e+04 </wgt>
<wgt id='1154'> +7.4095610e+04 </wgt>
<wgt id='1155'> +7.5491264e+04 </wgt>
<wgt id='1156'> +7.6270748e+04 </wgt>
<wgt id='1157'> +7.6098939e+04 </wgt>
<wgt id='1158'> +7.5497553e+04 </wgt>
<wgt id='1159'> +7.5839856e+04 </wgt>
<wgt id='1160'> +7.4391794e+04 </wgt>
<wgt id='1161'> +7.4147422e+04 </wgt>
<wgt id='1162'> +7.7150061e+04 </wgt>
<wgt id='1163'> +7.5893140e+04 </wgt>
<wgt id='1164'> +7.4523335e+04 </wgt>
<wgt id='1165'> +7.3350316e+04 </wgt>
<wgt id='1166'> +7.5048900e+04 </wgt>
<wgt id='1167'> +7.7014577e+04 </wgt>
<wgt id='1168'> +7.4363764e+04 </wgt>
<wgt id='1169'> +7.5106894e+04 </wgt>
<wgt id='1170'> +7.7021152e+04 </wgt>
<wgt id='1171'> +7.3417798e+04 </wgt>
<wgt id='1172'> +7.4471096e+04 </wgt>
<wgt id='1173'> +7.5727243e+04 </wgt>
<wgt id='1174'> +7.4933304e+04 </wgt>
<wgt id='1175'> +7.5498855e+04 </wgt>
<wgt id='1176'> +7.3896853e+04 </wgt>
<wgt id='1177'> +7.2390509e+04 </wgt>
<wgt id='1178'> +7.5344142e+04 </wgt>
<wgt id='1179'> +7.5453342e+04 </wgt>
<wgt id='1180'> +7.5991439e+04 </wgt>
<wgt id='1181'> +7.6338992e+04 </wgt>
<wgt id='1182'> +7.5078473e+04 </wgt>
<wgt id='1183'> +7.4358507e+04 </wgt>
<wgt id='1184'> +7.3861525e+04 </wgt>
<wgt id='1185'> +7.7617695e+04 </wgt>
<wgt id='1186'> +7.0324942e+04 </wgt>
<wgt id='1187'> +7.1353031e+04 </wgt>
<wgt id='1188'> +7.3218088e+04 </wgt>
<wgt id='1189'> +7.6646780e+04 </wgt>
<wgt id='1190'> +7.1209104e+04 </wgt>
<wgt id='1191'> +7.4480062e+04 </wgt>
<wgt id='1192'> +7.3975497e+04 </wgt>
<wgt id='1193'> +7.5980756e+04 </wgt>
<wgt id='1194'> +7.3516282e+04 </wgt>
<wgt id='1195'> +7.5236442e+04 </wgt>
<wgt id='1196'> +7.4631437e+04 </wgt>
<wgt id='1197'> +7.3216369e+04 </wgt>
<wgt id='1198'> +7.3518508e+04 </wgt>
<wgt id='1199'> +7.8284879e+04 </wgt>
<wgt id='1200'> +7.4218547e+04 </wgt>
<wgt id='1201'> +7.6707320e+04 </wgt>
<wgt id='1202'> +6.9831312e+04 </wgt>
<wgt id='1203'> +7.3797737e+04 </wgt>
<wgt id='1204'> +7.4687417e+04 </wgt>
<wgt id='1205'> +7.3077368e+04 </wgt>
<wgt id='1206'> +7.3584189e+04 </wgt>
<wgt id='1207'> +7.6948068e+04 </wgt>
<wgt id='1208'> +7.2904767e+04 </wgt>
<wgt id='1209'> +7.3983655e+04 </wgt>
<wgt id='1210'> +7.5724763e+04 </wgt>
<wgt id='1211'> +7.3392793e+04 </wgt>
<wgt id='1212'> +7.1770303e+04 </wgt>
<wgt id='1213'> +7.3688795e+04 </wgt>
<wgt id='1214'> +7.4474215e+04 </wgt>
<wgt id='1215'> +7.3590951e+04 </wgt>
<wgt id='1216'> +7.3386918e+04 </wgt>
<wgt id='1217'> +7.3433242e+04 </wgt>
<wgt id='1218'> +7.3956557e+04 </wgt>
<wgt id='1219'> +7.4559178e+04 </wgt>
<wgt id='1220'> +7.4668191e+04 </wgt>
<wgt id='1221'> +7.5276820e+04 </wgt>
<wgt id='1222'> +7.5344724e+04 </wgt>
<wgt id='1223'> +7.2975188e+04 </wgt>
<wgt id='1224'> +7.2938106e+04 </wgt>
<wgt id='1225'> +7.3125445e+04 </wgt>
<wgt id='1226'> +7.2931861e+04 </wgt>
<wgt id='1227'> +7.3406844e+04 </wgt>
<wgt id='1228'> +7.3052472e+04 </wgt>
<wgt id='1229'> +7.2680711e+04 </wgt>
<wgt id='1230'> +7.3118320e+04 </wgt>
<wgt id='1231'> +7.2913255e+04 </wgt>
<wgt id='1232'> +7.3170713e+04 </wgt>
<wgt id='1233'> +7.2333849e+04 </wgt>
<wgt id='1234'> +7.2841291e+04 </wgt>
<wgt id='1235'> +7.3159824e+04 </wgt>
<wgt id='1236'> +7.3140209e+04 </wgt>
<wgt id='1237'> +7.3274262e+04 </wgt>
<wgt id='1238'> +7.2439514e+04 </wgt>
<wgt id='1239'> +7.3461347e+04 </wgt>
<wgt id='1240'> +7.2740186e+04 </wgt>
<wgt id='1241'> +7.3266968e+04 </wgt>
<wgt id='1242'> +7.2968597e+04 </wgt>
<wgt id='1243'> +7.2465339e+04 </wgt>
<wgt id='1244'> +7.3586795e+04 </wgt>
<wgt id='1245'> +7.3065763e+04 </wgt>
<wgt id='1246'> +7.2944514e+04 </wgt>
<wgt id='1247'> +7.3470843e+04 </wgt>
<wgt id='1248'> +7.2503396e+04 </wgt>
<wgt id='1249'> +7.2995062e+04 </wgt>
<wgt id='1250'> +7.2920850e+04 </wgt>
<wgt id='1251'> +7.2837604e+04 </wgt>
<wgt id='1252'> +7.3730514e+04 </wgt>
<wgt id='1253'> +7.3067127e+04 </wgt>
<wgt id='1254'> +7.2546831e+04 </wgt>
<wgt id='1255'> +7.3087808e+04 </wgt>
<wgt id='1256'> +7.2941488e+04 </wgt>
<wgt id='1257'> +7.3039416e+04 </wgt>
<wgt id='1258'> +7.3116528e+04 </wgt>
<wgt id='1259'> +7.3018063e+04 </wgt>
<wgt id='1260'> +7.2806241e+04 </wgt>
<wgt id='1261'> +7.2965349e+04 </wgt>
<wgt id='1262'> +7.2955611e+04 </wgt>
<wgt id='1263'> +7.2943803e+04 </wgt>
<wgt id='1264'> +7.2964513e+04 </wgt>
<wgt id='1265'> +7.2867311e+04 </wgt>
<wgt id='1266'> +7.2778329e+04 </wgt>
<wgt id='1267'> +7.2946407e+04 </wgt>
<wgt id='1268'> +7.2932852e+04 </wgt>
<wgt id='1269'> +7.3109335e+04 </wgt>
<wgt id='1270'> +7.2984550e+04 </wgt>
<wgt id='1271'> +7.2975994e+04 </wgt>
<wgt id='1272'> +7.3126884e+04 </wgt>
<wgt id='1273'> +7.3021375e+04 </wgt>
<wgt id='1274'> +7.2889908e+04 </wgt>
<wgt id='1275'> +7.2806060e+04 </wgt>
<wgt id='1276'> +7.2890557e+04 </wgt>
<wgt id='1277'> +7.2943640e+04 </wgt>
<wgt id='1278'> +7.3066430e+04 </wgt>
<wgt id='1279'> +7.3029554e+04 </wgt>
<wgt id='1280'> +7.2932246e+04 </wgt>
<wgt id='1281'> +7.2924919e+04 </wgt>
<wgt id='1282'> +7.2925422e+04 </wgt>
<wgt id='1283'> +7.2956700e+04 </wgt>
<wgt id='1284'> +7.3030595e+04 </wgt>
<wgt id='1285'> +7.3120606e+04 </wgt>
<wgt id='1286'> +7.3042840e+04 </wgt>
<wgt id='1287'> +7.2978304e+04 </wgt>
<wgt id='1288'> +7.2992887e+04 </wgt>
<wgt id='1289'> +7.2967298e+04 </wgt>
<wgt id='1290'> +7.2979949e+04 </wgt>
<wgt id='1291'> +7.2942330e+04 </wgt>
<wgt id='1292'> +7.2880513e+04 </wgt>
<wgt id='1293'> +7.3029491e+04 </wgt>
<wgt id='1294'> +7.3013296e+04 </wgt>
<wgt id='1295'> +7.3074957e+04 </wgt>
<wgt id='1296'> +7.2962397e+04 </wgt>
<wgt id='1297'> +7.2981437e+04 </wgt>
<wgt id='1298'> +7.3020150e+04 </wgt>
<wgt id='1299'> +7.2897339e+04 </wgt>
<wgt id='1300'> +7.3037778e+04 </wgt>
<wgt id='1301'> +7.2921434e+04 </wgt>
<wgt id='1302'> +7.3002526e+04 </wgt>
<wgt id='1303'> +7.2923317e+04 </wgt>
<wgt id='1304'> +7.2861004e+04 </wgt>
<wgt id='1305'> +7.2995327e+04 </wgt>
<wgt id='1306'> +7.2944916e+04 </wgt>
<wgt id='1307'> +7.3020105e+04 </wgt>
<wgt id='1308'> +7.2993430e+04 </wgt>
<wgt id='1309'> +7.2928564e+04 </wgt>
<wgt id='1310'> +7.2932613e+04 </wgt>
<wgt id='1311'> +7.2990435e+04 </wgt>
<wgt id='1312'> +7.3009070e+04 </wgt>
<wgt id='1313'> +7.2962880e+04 </wgt>
<wgt id='1314'> +7.2923235e+04 </wgt>
<wgt id='1315'> +7.3022037e+04 </wgt>
<wgt id='1316'> +7.2961590e+04 </wgt>
<wgt id='1317'> +7.3038314e+04 </wgt>
<wgt id='1318'> +7.2943517e+04 </wgt>
<wgt id='1319'> +7.2957449e+04 </wgt>
<wgt id='1320'> +7.2930216e+04 </wgt>
<wgt id='1321'> +7.3012675e+04 </wgt>
<wgt id='1322'> +7.2957339e+04 </wgt>
<wgt id='1323'> +7.2998569e+04 </wgt>
<wgt id='1324'> +7.2660244e+04 </wgt>
<wgt id='1325'> +7.3500523e+04 </wgt>
<wgt id='1326'> +7.1567347e+04 </wgt>
<wgt id='1327'> +6.7251338e+04 </wgt>
<wgt id='1328'> +7.4581028e+04 </wgt>
<wgt id='1329'> +7.3684333e+04 </wgt>
<wgt id='1330'> +7.5988583e+04 </wgt>
<wgt id='1331'> +7.4068572e+04 </wgt>
<wgt id='1332'> +7.5743099e+04 </wgt>
<wgt id='1333'> +7.5088202e+04 </wgt>
<wgt id='1334'> +7.3993389e+04 </wgt>
<wgt id='1335'> +7.2902186e+04 </wgt>
<wgt id='1336'> +7.5278659e+04 </wgt>
<wgt id='1337'> +7.4883347e+04 </wgt>
<wgt id='1338'> +7.4589695e+04 </wgt>
<wgt id='1339'> +7.4003216e+04 </wgt>
<wgt id='1340'> +7.2834916e+04 </wgt>
<wgt id='1341'> +7.3237435e+04 </wgt>
<wgt id='1342'> +7.6071445e+04 </wgt>
<wgt id='1343'> +7.5374640e+04 </wgt>
<wgt id='1344'> +7.5232997e+04 </wgt>
<wgt id='1345'> +7.5070666e+04 </wgt>
<wgt id='1346'> +7.4753627e+04 </wgt>
<wgt id='1347'> +7.5946322e+04 </wgt>
<wgt id='1348'> +7.1886833e+04 </wgt>
<wgt id='1349'> +7.4670469e+04 </wgt>
<wgt id='1350'> +7.5698549e+04 </wgt>
<wgt id='1351'> +7.4183390e+04 </wgt>
<wgt id='1352'> +7.5662834e+04 </wgt>
<wgt id='1353'> +7.7474114e+04 </wgt>
<wgt id='1354'> +7.4835565e+04 </wgt>
<wgt id='1355'> +7.4787511e+04 </wgt>
<wgt id='1356'> +7.4863324e+04 </wgt>
<wgt id='1357'> +7.3805064e+04 </wgt>
<wgt id='1358'> +7.5575040e+04 </wgt>
<wgt id='1359'> +7.3906063e+04 </wgt>
<wgt id='1360'> +7.6844340e+04 </wgt>
<wgt id='1361'> +7.7267124e+04 </wgt>
<wgt id='1362'> +7.6139586e+04 </wgt>
<wgt id='1363'> +7.4040198e+04 </wgt>
<wgt id='1364'> +7.4821455e+04 </wgt>
<wgt id='1365'> +7.4260917e+04 </wgt>
<wgt id='1366'> +7.4545874e+04 </wgt>
<wgt id='1367'> +7.6507346e+04 </wgt>
<wgt id='1368'> +7.4605039e+04 </wgt>
<wgt id='1369'> +7.3795973e+04 </wgt>
<wgt id='1370'> +7.2152255e+04 </wgt>
<wgt id='1371'> +7.4306500e+04 </wgt>
<wgt id='1372'> +7.6839210e+04 </wgt>
<wgt id='1373'> +7.3774467e+04 </wgt>
<wgt id='1374'> +7.4797869e+04 </wgt>
<wgt id='1375'> +7.4983555e+04 </wgt>
<wgt id='1376'> +7.4215883e+04 </wgt>
<wgt id='1377'> +7.5326119e+04 </wgt>
<wgt id='1378'> +7.4345314e+04 </wgt>
<wgt id='1379'> +7.4742502e+04 </wgt>
<wgt id='1380'> +7.5663200e+04 </wgt>
<wgt id='1381'> +7.4429418e+04 </wgt>
<wgt id='1382'> +7.2269348e+04 </wgt>
<wgt id='1383'> +7.3996159e+04 </wgt>
<wgt id='1384'> +7.4947401e+04 </wgt>
<wgt id='1385'> +7.0615486e+04 </wgt>
<wgt id='1386'> +7.5603416e+04 </wgt>
<wgt id='1387'> +7.3336568e+04 </wgt>
<wgt id='1388'> +7.4538214e+04 </wgt>
<wgt id='1389'> +7.4984802e+04 </wgt>
<wgt id='1390'> +7.0969607e+04 </wgt>
<wgt id='1391'> +7.3404659e+04 </wgt>
<wgt id='1392'> +7.3366656e+04 </wgt>
<wgt id='1393'> +7.2047508e+04 </wgt>
<wgt id='1394'> +7.4260917e+04 </wgt>
<wgt id='1395'> +7.5017490e+04 </wgt>
<wgt id='1396'> +7.6647948e+04 </wgt>
<wgt id='1397'> +7.5532204e+04 </wgt>
<wgt id='1398'> +7.5103194e+04 </wgt>
<wgt id='1399'> +7.4538169e+04 </wgt>
<wgt id='1400'> +7.6262845e+04 </wgt>
<wgt id='1401'> +7.4034579e+04 </wgt>
<wgt id='1402'> +7.5728052e+04 </wgt>
<wgt id='1403'> +7.6029646e+04 </wgt>
<wgt id='1404'> +7.5445372e+04 </wgt>
<wgt id='1405'> +7.2620952e+04 </wgt>
<wgt id='1406'> +7.4825927e+04 </wgt>
<wgt id='1407'> +7.6255265e+04 </wgt>
<wgt id='1408'> +7.5328863e+04 </wgt>
<wgt id='1409'> +7.3524511e+04 </wgt>
<wgt id='1410'> +7.5259958e+04 </wgt>
<wgt id='1411'> +7.4687061e+04 </wgt>
<wgt id='1412'> +7.5524055e+04 </wgt>
<wgt id='1413'> +7.4968400e+04 </wgt>
<wgt id='1414'> +7.0819948e+04 </wgt>
<wgt id='1415'> +7.2874796e+04 </wgt>
<wgt id='1416'> +7.3242621e+04 </wgt>
<wgt id='1417'> +7.4085181e+04 </wgt>
<wgt id='1418'> +7.6653749e+04 </wgt>
<wgt id='1419'> +7.4008217e+04 </wgt>
<wgt id='1420'> +7.1529822e+04 </wgt>
<wgt id='1421'> +7.5451202e+04 </wgt>
<wgt id='1422'> +7.4107437e+04 </wgt>
<wgt id='1423'> +7.3889523e+04 </wgt>
<wgt id='1424'> +7.3303060e+04 </wgt>
<wgt id='1425'> +7.4932952e+04 </wgt>
<wgt id='1426'> +7.4983264e+04 </wgt>
<wgt id='1427'> +7.5210583e+04 </wgt>
<wgt id='1428'> +7.6125554e+04 </wgt>
<wgt id='1429'> +7.4617001e+04 </wgt>
<wgt id='1430'> +7.4315634e+04 </wgt>
<wgt id='1431'> +7.4529296e+04 </wgt>
<wgt id='1432'> +7.4724027e+04 </wgt>
<wgt id='1433'> +7.4352512e+04 </wgt>
<wgt id='1434'> +7.4480611e+04 </wgt>
<wgt id='1435'> +7.4343972e+04 </wgt>
<wgt id='1436'> +7.3827505e+04 </wgt>
<wgt id='1437'> +7.4799215e+04 </wgt>
<wgt id='1438'> +7.4514745e+04 </wgt>
<wgt id='1439'> +7.3772124e+04 </wgt>
<wgt id='1440'> +7.4372762e+04 </wgt>
<wgt id='1441'> +7.4211010e+04 </wgt>
<wgt id='1442'> +7.4412509e+04 </wgt>
<wgt id='1443'> +7.4357388e+04 </wgt>
<wgt id='1444'> +7.4302149e+04 </wgt>
<wgt id='1445'> +7.4375508e+04 </wgt>
<wgt id='1446'> +7.4370793e+04 </wgt>
<wgt id='1447'> +7.4448860e+04 </wgt>
<wgt id='1448'> +7.4585954e+04 </wgt>
<wgt id='1449'> +7.4583626e+04 </wgt>
<wgt id='1450'> +7.4503120e+04 </wgt>
<wgt id='1451'> +7.4507616e+04 </wgt>
<wgt id='1452'> +7.4264425e+04 </wgt>
<wgt id='1453'> +7.4454621e+04 </wgt>
<wgt id='1454'> +7.4611143e+04 </wgt>
<wgt id='1455'> +7.4652695e+04 </wgt>
<wgt id='1456'> +7.4589607e+04 </wgt>
<wgt id='1457'> +7.4420701e+04 </wgt>
<wgt id='1458'> +7.4501079e+04 </wgt>
<wgt id='1459'> +7.4583465e+04 </wgt>
<wgt id='1460'> +7.4538055e+04 </wgt>
<wgt id='1461'> +7.4544769e+04 </wgt>
<wgt id='1462'> +7.4568335e+04 </wgt>
<wgt id='1463'> +7.4485007e+04 </wgt>
<wgt id='1464'> +7.4531081e+04 </wgt>
<wgt id='1465'> +7.4483526e+04 </wgt>
<wgt id='1466'> +7.4473971e+04 </wgt>
<wgt id='1467'> +7.4550673e+04 </wgt>
<wgt id='1468'> +7.4600026e+04 </wgt>
<wgt id='1469'> +7.4526362e+04 </wgt>
<wgt id='1470'> +7.4536096e+04 </wgt>
<wgt id='1471'> +7.4526432e+04 </wgt>
<wgt id='1472'> +7.4579293e+04 </wgt>
<wgt id='1473'> +7.4504057e+04 </wgt>
<wgt id='1474'> +7.4516704e+04 </wgt>
<wgt id='1475'> +7.4528189e+04 </wgt>
<wgt id='1476'> +7.4503114e+04 </wgt>
<wgt id='1477'> +7.4525090e+04 </wgt>
<wgt id='1478'> +7.4509480e+04 </wgt>
<wgt id='1479'> +7.4509469e+04 </wgt>
<wgt id='1480'> +7.4508400e+04 </wgt>
<wgt id='1481'> +7.4550348e+04 </wgt>
<wgt id='1482'> +7.4617001e+04 </wgt>
<wgt id='1483'> +7.4315634e+04 </wgt>
<wgt id='1484'> +7.4448695e+04 </wgt>
<wgt id='1485'> +7.5136378e+04 </wgt>
<wgt id='1486'> +7.4828462e+04 </wgt>
<wgt id='1487'> +7.4259501e+04 </wgt>
<wgt id='1488'> +7.4803382e+04 </wgt>
<wgt id='1489'> +7.4115270e+04 </wgt>
<wgt id='1490'> +7.2936992e+04 </wgt>
<wgt id='1491'> +7.3165618e+04 </wgt>
<wgt id='1492'> +7.3499336e+04 </wgt>
<wgt id='1493'> +7.5234898e+04 </wgt>
<wgt id='1494'> +7.3959677e+04 </wgt>
<wgt id='1495'> +7.2756727e+04 </wgt>
<wgt id='1496'> +7.3272902e+04 </wgt>
<wgt id='1497'> +7.2383102e+04 </wgt>
<wgt id='1498'> +7.5861854e+04 </wgt>
<wgt id='1499'> +7.4326516e+04 </wgt>
<wgt id='1500'> +7.2554090e+04 </wgt>
<wgt id='1501'> +7.3337964e+04 </wgt>
<wgt id='1502'> +7.5024849e+04 </wgt>
<wgt id='1503'> +7.3078458e+04 </wgt>
<wgt id='1504'> +7.4004531e+04 </wgt>
<wgt id='1505'> +7.4664767e+04 </wgt>
<wgt id='1506'> +7.4434601e+04 </wgt>
<wgt id='1507'> +7.4402080e+04 </wgt>
<wgt id='1508'> +7.1824820e+04 </wgt>
<wgt id='1509'> +7.6025865e+04 </wgt>
<wgt id='1510'> +7.5959300e+04 </wgt>
<wgt id='1511'> +7.5698878e+04 </wgt>
<wgt id='1512'> +7.4233928e+04 </wgt>
<wgt id='1513'> +7.2774017e+04 </wgt>
<wgt id='1514'> +7.4360727e+04 </wgt>
<wgt id='1515'> +7.3894447e+04 </wgt>
<wgt id='1516'> +7.3890268e+04 </wgt>
<wgt id='1517'> +7.4944674e+04 </wgt>
<wgt id='1518'> +7.4148850e+04 </wgt>
<wgt id='1519'> +7.3968666e+04 </wgt>
<wgt id='1520'> +7.5861425e+04 </wgt>
<wgt id='1521'> +7.4319211e+04 </wgt>
<wgt id='1522'> +7.4284442e+04 </wgt>
<wgt id='1523'> +7.4043607e+04 </wgt>
<wgt id='1524'> +7.5489827e+04 </wgt>
<wgt id='1525'> +7.4737619e+04 </wgt>
<wgt id='1526'> +7.3999567e+04 </wgt>
<wgt id='1527'> +7.4654581e+04 </wgt>
<wgt id='1528'> +7.4856634e+04 </wgt>
<wgt id='1529'> +7.4515019e+04 </wgt>
<wgt id='1530'> +7.3345361e+04 </wgt>
<wgt id='1531'> +7.5270393e+04 </wgt>
<wgt id='1532'> +7.3377810e+04 </wgt>
<wgt id='1533'> +7.6389426e+04 </wgt>
<wgt id='1534'> +7.4122092e+04 </wgt>
<wgt id='1535'> +7.4168481e+04 </wgt>
<wgt id='1536'> +7.4532188e+04 </wgt>
<wgt id='1537'> +7.5799642e+04 </wgt>
<wgt id='1538'> +7.4637924e+04 </wgt>
<wgt id='1539'> +7.4972617e+04 </wgt>
<wgt id='1540'> +7.4639437e+04 </wgt>
<wgt id='1541'> +7.5433293e+04 </wgt>
<wgt id='1542'> +7.4113103e+04 </wgt>
<wgt id='1543'> +7.5135049e+04 </wgt>
<wgt id='1544'> +7.4806706e+04 </wgt>
<wgt id='1545'> +7.5388181e+04 </wgt>
<wgt id='1546'> +7.4181629e+04 </wgt>
<wgt id='1547'> +7.5222632e+04 </wgt>
<wgt id='1548'> +7.4374998e+04 </wgt>
<wgt id='1549'> +7.5086620e+04 </wgt>
<wgt id='1550'> +7.5232019e+04 </wgt>
<wgt id='1551'> +7.5330357e+04 </wgt>
<wgt id='1552'> +7.5160863e+04 </wgt>
<wgt id='1553'> +7.5371888e+04 </wgt>
<wgt id='1554'> +7.5121077e+04 </wgt>
<wgt id='1555'> +7.3488261e+04 </wgt>
<wgt id='1556'> +7.3221130e+04 </wgt>
<wgt id='1557'> +7.3871969e+04 </wgt>
<wgt id='1558'> +7.4668862e+04 </wgt>
<wgt id='1559'> +7.5989910e+04 </wgt>
<wgt id='1560'> +7.5774218e+04 </wgt>
<wgt id='1561'> +7.6344241e+04 </wgt>
<wgt id='1562'> +7.4618195e+04 </wgt>
<wgt id='1563'> +7.5259521e+04 </wgt>
<wgt id='1564'> +7.5256158e+04 </wgt>
<wgt id='1565'> +7.5606617e+04 </wgt>
<wgt id='1566'> +7.2838362e+04 </wgt>
<wgt id='1567'> +7.4225934e+04 </wgt>
<wgt id='1568'> +7.3751824e+04 </wgt>
<wgt id='1569'> +7.4775252e+04 </wgt>
<wgt id='1570'> +7.4651469e+04 </wgt>
<wgt id='1571'> +7.4883912e+04 </wgt>
<wgt id='1572'> +7.4311188e+04 </wgt>
<wgt id='1573'> +7.4480041e+04 </wgt>
<wgt id='1574'> +7.2215803e+04 </wgt>
<wgt id='1575'> +7.4094163e+04 </wgt>
<wgt id='1576'> +7.5341142e+04 </wgt>
<wgt id='1577'> +7.3114886e+04 </wgt>
<wgt id='1578'> +7.4326811e+04 </wgt>
<wgt id='1579'> +7.2592596e+04 </wgt>
<wgt id='1580'> +7.5319143e+04 </wgt>
<wgt id='1581'> +7.6078022e+04 </wgt>
<wgt id='1582'> +7.5972208e+04 </wgt>
<wgt id='1583'> +7.4740385e+04 </wgt>
<wgt id='1584'> +7.1081126e+04 </wgt>
<wgt id='1585'> +7.2236126e+04 </wgt>
<wgt id='1586'> +6.6742035e+04 </wgt>
<wgt id='1587'> +7.4853160e+04 </wgt>
<wgt id='1588'> +7.4617001e+04 </wgt>
<wgt id='1589'> +7.4431011e+04 </wgt>
<wgt id='1590'> +7.4100172e+04 </wgt>
<wgt id='1591'> +7.4315634e+04 </wgt>
<wgt id='1592'> +7.3864335e+04 </wgt>
<wgt id='1593'> +7.3848511e+04 </wgt>
<wgt id='1594'> +7.2866060e+04 </wgt>
<wgt id='1595'> +7.3030644e+04 </wgt>
<wgt id='1596'> +7.3862568e+04 </wgt>
<wgt id='1597'> +7.3846680e+04 </wgt>
<wgt id='1598'> +7.2645912e+04 </wgt>
<wgt id='1599'> +7.4455591e+04 </wgt>
<wgt id='1600'> +7.1838001e+04 </wgt>
<wgt id='1601'> +7.5522319e+04 </wgt>
<wgt id='1602'> +7.1136603e+04 </wgt>
<wgt id='1603'> +7.6201557e+04 </wgt>
<wgt id='1604'> +7.4359217e+04 </wgt>
<wgt id='1605'> +7.4014817e+04 </wgt>
<wgt id='1606'> +7.2678479e+04 </wgt>
<wgt id='1607'> +7.4370513e+04 </wgt>
<wgt id='1608'> +7.3265283e+04 </wgt>
<wgt id='1609'> +7.3304559e+04 </wgt>
<wgt id='1610'> +7.3914565e+04 </wgt>
<wgt id='1611'> +7.3449108e+04 </wgt>
<wgt id='1612'> +7.4675888e+04 </wgt>
<wgt id='1613'> +7.1588096e+04 </wgt>
<wgt id='1614'> +7.4298218e+04 </wgt>
<wgt id='1615'> +7.3109254e+04 </wgt>
<wgt id='1616'> +7.3684698e+04 </wgt>
<wgt id='1617'> +7.3068671e+04 </wgt>
<wgt id='1618'> +7.4058912e+04 </wgt>
<wgt id='1619'> +7.3487209e+04 </wgt>
<wgt id='1620'> +7.2972584e+04 </wgt>
<wgt id='1621'> +7.4165761e+04 </wgt>
<wgt id='1622'> +7.3435886e+04 </wgt>
<wgt id='1623'> +7.3137754e+04 </wgt>
<wgt id='1624'> +7.3832648e+04 </wgt>
<wgt id='1625'> +7.2812839e+04 </wgt>
<wgt id='1626'> +7.2945701e+04 </wgt>
<wgt id='1627'> +7.3978588e+04 </wgt>
<wgt id='1628'> +7.4494490e+04 </wgt>
<wgt id='1629'> +7.3368801e+04 </wgt>
<wgt id='1630'> +7.4169958e+04 </wgt>
<wgt id='1631'> +7.2788039e+04 </wgt>
<wgt id='1632'> +7.4407528e+04 </wgt>
<wgt id='1633'> +7.2660187e+04 </wgt>
<wgt id='1634'> +7.4549552e+04 </wgt>
<wgt id='1635'> +7.2906247e+04 </wgt>
<wgt id='1636'> +7.2815821e+04 </wgt>
<wgt id='1637'> +7.4741249e+04 </wgt>
<wgt id='1638'> +7.3218386e+04 </wgt>
<wgt id='1639'> +7.4096137e+04 </wgt>
<wgt id='1640'> +7.4729734e+04 </wgt>
<wgt id='1641'> +7.2559108e+04 </wgt>
<wgt id='1642'> +7.2664046e+04 </wgt>
<wgt id='1643'> +7.4629840e+04 </wgt>
<wgt id='1644'> +7.5088684e+04 </wgt>
<wgt id='1645'> +7.1605351e+04 </wgt>
<wgt id='1646'> +7.3916051e+04 </wgt>
<wgt id='1647'> +7.4028477e+04 </wgt>
<wgt id='1648'> +7.4375955e+04 </wgt>
<wgt id='1649'> +7.3423857e+04 </wgt>
<wgt id='1650'> +7.3863196e+04 </wgt>
<wgt id='1651'> +7.3883670e+04 </wgt>
<wgt id='1652'> +7.3393281e+04 </wgt>
<wgt id='1653'> +7.3610415e+04 </wgt>
<wgt id='1654'> +7.4113721e+04 </wgt>
<wgt id='1655'> +7.4409733e+04 </wgt>
<wgt id='1656'> +7.4889877e+04 </wgt>
<wgt id='1657'> +7.4161855e+04 </wgt>
<wgt id='1658'> +7.4065741e+04 </wgt>
<wgt id='1659'> +7.5907533e+04 </wgt>
<wgt id='1660'> +7.4142152e+04 </wgt>
<wgt id='1661'> +7.5986519e+04 </wgt>
<wgt id='1662'> +7.3496786e+04 </wgt>
<wgt id='1663'> +7.3649115e+04 </wgt>
<wgt id='1664'> +7.4370063e+04 </wgt>
<wgt id='1665'> +7.4062341e+04 </wgt>
<wgt id='1666'> +7.4691383e+04 </wgt>
<wgt id='1667'> +7.4653195e+04 </wgt>
<wgt id='1668'> +7.4914569e+04 </wgt>
<wgt id='1669'> +7.5840450e+04 </wgt>
<wgt id='1670'> +7.3104692e+04 </wgt>
<wgt id='1671'> +7.5251540e+04 </wgt>
<wgt id='1672'> +7.4464199e+04 </wgt>
<wgt id='1673'> +7.4494303e+04 </wgt>
<wgt id='1674'> +7.5116537e+04 </wgt>
<wgt id='1675'> +7.4979579e+04 </wgt>
<wgt id='1676'> +7.4981909e+04 </wgt>
<wgt id='1677'> +7.4227834e+04 </wgt>
<wgt id='1678'> +7.5562137e+04 </wgt>
<wgt id='1679'> +7.4450943e+04 </wgt>
<wgt id='1680'> +7.5970137e+04 </wgt>
<wgt id='1681'> +7.5512413e+04 </wgt>
<wgt id='1682'> +7.3551301e+04 </wgt>
<wgt id='1683'> +7.4953925e+04 </wgt>
<wgt id='1684'> +7.4697069e+04 </wgt>
<wgt id='1685'> +7.4721007e+04 </wgt>
<wgt id='1686'> +7.4515279e+04 </wgt>
<wgt id='1687'> +7.5971407e+04 </wgt>
<wgt id='1688'> +7.3079277e+04 </wgt>
<wgt id='1689'> +7.5425892e+04 </wgt>
<wgt id='1690'> +7.4502647e+04 </wgt>
<wgt id='1691'> +7.5082956e+04 </wgt>
<wgt id='1692'> +7.4069547e+04 </wgt>
<wgt id='1693'> +7.7630826e+04 </wgt>
<wgt id='1694'> +7.2838060e+04 </wgt>
<wgt id='1695'> +7.4824589e+04 </wgt>
<wgt id='1696'> +7.4492636e+04 </wgt>
<wgt id='1697'> +7.5423363e+04 </wgt>
<wgt id='1698'> +7.4296973e+04 </wgt>
<wgt id='1699'> +7.4000656e+04 </wgt>
<wgt id='1700'> +7.5686766e+04 </wgt>
<wgt id='1701'> +7.3281429e+04 </wgt>
<wgt id='1702'> +7.6678502e+04 </wgt>
<wgt id='1703'> +7.5558610e+04 </wgt>
<wgt id='1704'> +7.4694494e+04 </wgt>
<wgt id='1705'> +7.4560385e+04 </wgt>
<wgt id='1706'> +7.4849336e+04 </wgt>
<wgt id='1707'> +7.3376633e+04 </wgt>
<wgt id='1708'> +7.6018061e+04 </wgt>
<wgt id='1709'> +7.4720387e+04 </wgt>
<wgt id='1710'> +7.5226051e+04 </wgt>
<wgt id='1711'> +7.4296872e+04 </wgt>
<wgt id='1712'> +7.4558272e+04 </wgt>
<wgt id='1713'> +7.4317644e+04 </wgt>
<wgt id='1714'> +7.5055982e+04 </wgt>
<wgt id='1715'> +7.2091377e+04 </wgt>
<wgt id='1716'> +7.5193057e+04 </wgt>
<wgt id='1717'> +6.9369919e+04 </wgt>
<wgt id='1718'> +6.9447284e+04 </wgt>
<wgt id='1719'> +6.9269621e+04 </wgt>
<wgt id='1720'> +6.8848512e+04 </wgt>
<wgt id='1721'> +6.9847944e+04 </wgt>
<wgt id='1722'> +6.9068510e+04 </wgt>
<wgt id='1723'> +6.9865106e+04 </wgt>
<wgt id='1724'> +6.9708693e+04 </wgt>
<wgt id='1725'> +6.9094792e+04 </wgt>
<wgt id='1726'> +6.9282184e+04 </wgt>
<wgt id='1727'> +6.9460199e+04 </wgt>
<wgt id='1728'> +6.8754498e+04 </wgt>
<wgt id='1729'> +6.9968419e+04 </wgt>
<wgt id='1730'> +6.9583587e+04 </wgt>
<wgt id='1731'> +6.9218027e+04 </wgt>
<wgt id='1732'> +6.9745464e+04 </wgt>
<wgt id='1733'> +6.9745464e+04 </wgt>
<wgt id='1734'> +6.9300952e+04 </wgt>
<wgt id='1735'> +6.9414197e+04 </wgt>
<wgt id='1736'> +6.9089130e+04 </wgt>
<wgt id='1737'> +6.9764776e+04 </wgt>
<wgt id='1738'> +6.9478003e+04 </wgt>
<wgt id='1739'> +6.9142556e+04 </wgt>
<wgt id='1740'> +6.9303743e+04 </wgt>
<wgt id='1741'> +6.9527815e+04 </wgt>
<wgt id='1742'> +6.9364984e+04 </wgt>
<wgt id='1743'> +6.9387841e+04 </wgt>
<wgt id='1744'> +6.9478721e+04 </wgt>
<wgt id='1745'> +6.9072285e+04 </wgt>
<wgt id='1746'> +6.9247512e+04 </wgt>
<wgt id='1747'> +6.9418617e+04 </wgt>
<wgt id='1748'> +6.9568768e+04 </wgt>
<wgt id='1749'> +6.8700463e+04 </wgt>
<wgt id='1750'> +6.9592308e+04 </wgt>
<wgt id='1751'> +6.9132444e+04 </wgt>
<wgt id='1752'> +6.9363350e+04 </wgt>
<wgt id='1753'> +6.9387755e+04 </wgt>
<wgt id='1754'> +6.9596110e+04 </wgt>
<wgt id='1755'> +6.9243193e+04 </wgt>
<wgt id='1756'> +6.9158987e+04 </wgt>
<wgt id='1757'> +6.9912077e+04 </wgt>
<wgt id='1758'> +6.9555810e+04 </wgt>
<wgt id='1759'> +6.9156248e+04 </wgt>
<wgt id='1760'> +6.9796966e+04 </wgt>
<wgt id='1761'> +6.8986771e+04 </wgt>
<wgt id='1762'> +6.9290971e+04 </wgt>
<wgt id='1763'> +6.9195943e+04 </wgt>
<wgt id='1764'> +6.9258021e+04 </wgt>
<wgt id='1765'> +6.9881250e+04 </wgt>
<wgt id='1766'> +6.9314865e+04 </wgt>
<wgt id='1767'> +6.9450413e+04 </wgt>
<wgt id='1768'> +6.9305872e+04 </wgt>
<wgt id='1769'> +6.9396615e+04 </wgt>
<wgt id='1770'> +6.9055872e+04 </wgt>
<wgt id='1771'> +6.9418805e+04 </wgt>
<wgt id='1772'> +6.9621607e+04 </wgt>
<wgt id='1773'> +6.9102163e+04 </wgt>
<wgt id='1774'> +6.8621762e+04 </wgt>
<wgt id='1775'> +6.9858812e+04 </wgt>
<wgt id='1776'> +6.9068658e+04 </wgt>
<wgt id='1777'> +6.9513558e+04 </wgt>
<wgt id='1778'> +6.8872181e+04 </wgt>
<wgt id='1779'> +6.9291566e+04 </wgt>
<wgt id='1780'> +7.0293011e+04 </wgt>
<wgt id='1781'> +6.9598414e+04 </wgt>
<wgt id='1782'> +6.9369919e+04 </wgt>
<wgt id='1783'> +6.9409724e+04 </wgt>
<wgt id='1784'> +7.1861635e+04 </wgt>
<wgt id='1785'> +7.2132394e+04 </wgt>
<wgt id='1786'> +6.9592129e+04 </wgt>
<wgt id='1787'> +7.1911840e+04 </wgt>
<wgt id='1788'> +7.1872702e+04 </wgt>
<wgt id='1789'> +7.1963981e+04 </wgt>
<wgt id='1790'> +7.2060541e+04 </wgt>
<wgt id='1791'> +7.2072254e+04 </wgt>
<wgt id='1792'> +7.0963559e+04 </wgt>
<wgt id='1793'> +7.2195406e+04 </wgt>
<wgt id='1794'> +7.2002291e+04 </wgt>
<wgt id='1795'> +7.1762555e+04 </wgt>
<wgt id='1796'> +7.1955522e+04 </wgt>
<wgt id='1797'> +7.2082642e+04 </wgt>
<wgt id='1798'> +7.2131731e+04 </wgt>
<wgt id='1799'> +7.2505697e+04 </wgt>
<wgt id='1800'> +7.2283206e+04 </wgt>
<wgt id='1801'> +7.2720015e+04 </wgt>
<wgt id='1802'> +7.2718603e+04 </wgt>
<wgt id='1803'> +7.1956061e+04 </wgt>
<wgt id='1804'> +7.1891855e+04 </wgt>
<wgt id='1805'> +7.1358177e+04 </wgt>
<wgt id='1806'> +7.1953750e+04 </wgt>
<wgt id='1807'> +7.1901669e+04 </wgt>
<wgt id='1808'> +7.1972401e+04 </wgt>
<wgt id='1809'> +7.1754623e+04 </wgt>
<wgt id='1810'> +7.1845461e+04 </wgt>
<wgt id='1811'> +7.1863029e+04 </wgt>
<wgt id='1812'> +7.1717996e+04 </wgt>
<wgt id='1813'> +7.1431649e+04 </wgt>
<wgt id='1814'> +7.2113866e+04 </wgt>
<wgt id='1815'> +7.1721561e+04 </wgt>
<wgt id='1816'> +7.1906466e+04 </wgt>
<wgt id='1817'> +7.1947405e+04 </wgt>
<wgt id='1818'> +7.1918613e+04 </wgt>
<wgt id='1819'> +7.1846938e+04 </wgt>
<wgt id='1820'> +7.1887247e+04 </wgt>
<wgt id='1821'> +7.1568710e+04 </wgt>
<wgt id='1822'> +7.1807305e+04 </wgt>
<wgt id='1823'> +7.1877451e+04 </wgt>
<wgt id='1824'> +7.2062497e+04 </wgt>
<wgt id='1825'> +7.1698681e+04 </wgt>
<wgt id='1826'> +7.2449136e+04 </wgt>
<wgt id='1827'> +7.3691960e+04 </wgt>
<wgt id='1828'> +7.3882572e+04 </wgt>
<wgt id='1829'> +7.3510467e+04 </wgt>
<wgt id='1830'> +7.3600496e+04 </wgt>
<wgt id='1831'> +7.3791585e+04 </wgt>
<wgt id='1832'> +7.3772327e+04 </wgt>
<wgt id='1833'> +7.3619808e+04 </wgt>
<wgt id='1834'> +7.3385670e+04 </wgt>
<wgt id='1835'> +7.3990378e+04 </wgt>
<wgt id='1836'> +7.4071952e+04 </wgt>
<wgt id='1837'> +7.3315746e+04 </wgt>
<wgt id='1838'> +7.4036264e+04 </wgt>
<wgt id='1839'> +7.3354879e+04 </wgt>
<wgt id='1840'> +7.3469541e+04 </wgt>
<wgt id='1841'> +7.3924969e+04 </wgt>
<wgt id='1842'> +7.3642716e+04 </wgt>
<wgt id='1843'> +7.3789591e+04 </wgt>
<wgt id='1844'> +7.3766453e+04 </wgt>
<wgt id='1845'> +7.3606071e+04 </wgt>
<wgt id='1846'> +7.3768319e+04 </wgt>
<wgt id='1847'> +7.3602882e+04 </wgt>
<wgt id='1848'> +7.3430489e+04 </wgt>
<wgt id='1849'> +7.3856407e+04 </wgt>
<wgt id='1850'> +7.4067655e+04 </wgt>
<wgt id='1851'> +7.3319487e+04 </wgt>
<wgt id='1852'> +7.4352860e+04 </wgt>
<wgt id='1853'> +7.2900554e+04 </wgt>
<wgt id='1854'> +7.4391531e+04 </wgt>
<wgt id='1855'> +7.3072135e+04 </wgt>
<wgt id='1856'> +7.1611339e+04 </wgt>
<wgt id='1857'> +7.1600284e+04 </wgt>
<wgt id='1858'> +7.1527034e+04 </wgt>
<wgt id='1859'> +7.1634311e+04 </wgt>
<wgt id='1860'> +7.1613503e+04 </wgt>
<wgt id='1861'> +7.1706525e+04 </wgt>
<wgt id='1862'> +7.1225530e+04 </wgt>
<wgt id='1863'> +7.1753632e+04 </wgt>
<wgt id='1864'> +7.1434328e+04 </wgt>
<wgt id='1865'> +7.1436820e+04 </wgt>
<wgt id='1866'> +7.1543426e+04 </wgt>
<wgt id='1867'> +7.1541125e+04 </wgt>
<wgt id='1868'> +7.1616835e+04 </wgt>
<wgt id='1869'> +7.1733386e+04 </wgt>
<wgt id='1870'> +7.1493344e+04 </wgt>
<wgt id='1871'> +7.1657670e+04 </wgt>
<wgt id='1872'> +7.1474675e+04 </wgt>
<wgt id='1873'> +7.1587618e+04 </wgt>
<wgt id='1874'> +7.1534818e+04 </wgt>
<wgt id='1875'> +7.1707093e+04 </wgt>
<wgt id='1876'> +7.1508220e+04 </wgt>
<wgt id='1877'> +7.1353869e+04 </wgt>
<wgt id='1878'> +7.1529365e+04 </wgt>
<wgt id='1879'> +7.1833933e+04 </wgt>
<wgt id='1880'> +7.1807480e+04 </wgt>
<wgt id='1881'> +7.1575245e+04 </wgt>
<wgt id='1882'> +7.1539093e+04 </wgt>
<wgt id='1883'> +7.1671314e+04 </wgt>
<wgt id='1884'> +7.1153352e+04 </wgt>
<wgt id='1885'> +7.1178811e+04 </wgt>
<wgt id='1886'> +8.0708822e+04 </wgt>
<wgt id='1887'> +7.8816045e+04 </wgt>
<wgt id='1888'> +6.4133555e+04 </wgt>
<wgt id='1889'> +6.9514825e+04 </wgt>
</rwgt>
</event>
<event npLO=" -1 " npNLO=" 0 ">
 5      1 +7.4519530e+04 2.38830580e+01 7.55820760e-03 1.20608780e-01
        1 -1    0    0  501    0 +0.0000000000e+00 +0.0000000000e+00 +1.3223660521e+03 1.3223660521e+03 0.0000000000e+00 0.0000e+00 -1.0000e+00
       -2 -1    0    0    0  501 +0.0000000000e+00 +0.0000000000e+00 -1.1384673818e+00 1.1384673818e+00 0.0000000000e+00 0.0000e+00 1.0000e+00
      -24  2    1    2    0    0 +0.0000000000e+00 +0.0000000000e+00 +1.3212275847e+03 1.3235045194e+03 7.7600789095e+01 0.0000e+00 0.0000e+00
       15  1    3    3    0    0 -1.4455944692e+01 +2.3467139989e+00 +1.2733880589e+03 1.2734735128e+03 1.7770000000e+00 0.0000e+00 -1.0000e+00
      -16  1    3    3    0    0 +1.4455944692e+01 -2.3467139989e+00 +4.7839525747e+01 5.0031006658e+01 0.0000000000e+00 0.0000e+00 1.0000e+00
#aMCatNLO 1  0  0  1  2 0.15944656E+02 0.00000000E+00 -9  5  0 0.00000000E+00 0.00000000E+00 0.00000000E+00 0.00000000E+00 0.00000000E+00
<rwgt>
<wgt id='1001'> +7.4519530e+04 </wgt>
<wgt id='1002'> +7.2053645e+04 </wgt>
<wgt id='1003'> +7.7594697e+04 </wgt>
<wgt id='1004'> +1.0225629e+05 </wgt>
<wgt id='1005'> +9.7527886e+04 </wgt>
<wgt id='1006'> +1.0815420e+05 </wgt>
<wgt id='1007'> +5.0087465e+04 </wgt>
<wgt id='1008'> +4.9509133e+04 </wgt>
<wgt id='1009'> +5.0807723e+04 </wgt>
<wgt id='1010'> +7.4519530e+04 </wgt>
<wgt id='1011'> +7.4983054e+04 </wgt>
<wgt id='1012'> +7.4959548e+04 </wgt>
<wgt id='1013'> +7.3919885e+04 </wgt>
<wgt id='1014'> +7.4659981e+04 </wgt>
<wgt id='1015'> +7.4247581e+04 </wgt>
<wgt id='1016'> +7.4261562e+04 </wgt>
<wgt id='1017'> +7.4344274e+04 </wgt>
<wgt id='1018'> +7.3945836e+04 </wgt>
<wgt id='1019'> +7.4478844e+04 </wgt>
<wgt id='1020'> +7.4431777e+04 </wgt>
<wgt id='1021'> +7.4639974e+04 </wgt>
<wgt id='1022'> +7.4366632e+04 </wgt>
<wgt id='1023'> +7.4567378e+04 </wgt>
<wgt id='1024'> +7.4239023e+04 </wgt>
<wgt id='1025'> +7.4370003e+04 </wgt>
<wgt id='1026'> +7.4155563e+04 </wgt>
<wgt id='1027'> +7.4653936e+04 </wgt>
<wgt id='1028'> +7.4405074e+04 </wgt>
<wgt id='1029'> +7.4772392e+04 </wgt>
<wgt id='1030'> +7.4491554e+04 </wgt>
<wgt id='1031'> +7.4711046e+04 </wgt>
<wgt id='1032'> +7.4553884e+04 </wgt>
<wgt id='1033'> +7.4128097e+04 </wgt>
<wgt id='1034'> +7.4804301e+04 </wgt>
<wgt id='1035'> +7.4843328e+04 </wgt>
<wgt id='1036'> +7.4493401e+04 </wgt>
<wgt id='1037'> +7.4166566e+04 </wgt>
<wgt id='1038'> +7.4777500e+04 </wgt>
<wgt id='1039'> +7.5000680e+04 </wgt>
<wgt id='1040'> +7.4375539e+04 </wgt>
<wgt id='1041'> +7.5338701e+04 </wgt>
<wgt id='1042'> +7.4778884e+04 </wgt>
<wgt id='1043'> +7.4891071e+04 </wgt>
<wgt id='1044'> +7.4715078e+04 </wgt>
<wgt id='1045'> +7.4530518e+04 </wgt>
<wgt id='1046'> +7.3917251e+04 </wgt>
<wgt id='1047'> +7.5362386e+04 </wgt>
<wgt id='1048'> +7.4271046e+04 </wgt>
<wgt id='1049'> +7.4332584e+04 </wgt>
<wgt id='1050'> +7.4437980e+04 </wgt>
<wgt id='1051'> +7.4748318e+04 </wgt>
<wgt id='1052'> +7.4667435e+04 </wgt>
<wgt id='1053'> +7.4530455e+04 </wgt>
<wgt id='1054'> +7.4603750e+04 </wgt>
<wgt id='1055'> +7.4805402e+04 </wgt>
<wgt id='1056'> +7.4549242e+04 </wgt>
<wgt id='1057'> +7.4683147e+04 </wgt>
<wgt id='1058'> +7.4561695e+04 </wgt>
<wgt id='1059'> +7.4274167e+04 </wgt>
<wgt id='1060'> +7.4291697e+04 </wgt>
<wgt id='1061'> +7.4428582e+04 </wgt>
<wgt id='1062'> +7.4302714e+04 </wgt>
<wgt id='1063'> +7.4686300e+04 </wgt>
<wgt id='1064'> +7.4357163e+04 </wgt>
<wgt id='1065'> +7.4755197e+04 </wgt>
<wgt id='1066'> +7.4059418e+04 </wgt>
<wgt id='1067'> +7.4521479e+04 </wgt>
<wgt id='1068'> +7.4664120e+04 </wgt>
<wgt id='1069'> +7.4427100e+04 </wgt>
<wgt id='1070'> +7.4407625e+04 </wgt>
<wgt id='1071'> +7.4714127e+04 </wgt>
<wgt id='1072'> +7.4753798e+04 </wgt>
<wgt id='1073'> +7.4563304e+04 </wgt>
<wgt id='1074'> +7.4661171e+04 </wgt>
<wgt id='1075'> +7.4341136e+04 </wgt>
<wgt id='1076'> +7.4346292e+04 </wgt>
<wgt id='1077'> +7.4480629e+04 </wgt>
<wgt id='1078'> +7.4676599e+04 </wgt>
<wgt id='1079'> +7.4621271e+04 </wgt>
<wgt id='1080'> +7.4438619e+04 </wgt>
<wgt id='1081'> +7.4698323e+04 </wgt>
<wgt id='1082'> +7.4538298e+04 </wgt>
<wgt id='1083'> +7.4464861e+04 </wgt>
<wgt id='1084'> +7.4690379e+04 </wgt>
<wgt id='1085'> +7.4351972e+04 </wgt>
<wgt id='1086'> +7.4493730e+04 </wgt>
<wgt id='1087'> +7.4588241e+04 </wgt>
<wgt id='1088'> +7.4606790e+04 </wgt>
<wgt id='1089'> +7.4392757e+04 </wgt>
<wgt id='1090'> +7.4534261e+04 </wgt>
<wgt id='1091'> +7.4476849e+04 </wgt>
<wgt id='1092'> +7.4575051e+04 </wgt>
<wgt id='1093'> +7.4416971e+04 </wgt>
<wgt id='1094'> +7.4463267e+04 </wgt>
<wgt id='1095'> +7.4599151e+04 </wgt>
<wgt id='1096'> +7.4651329e+04 </wgt>
<wgt id='1097'> +7.4556541e+04 </wgt>
<wgt id='1098'> +7.4602164e+04 </wgt>
<wgt id='1099'> +7.4481645e+04 </wgt>
<wgt id='1100'> +7.4466597e+04 </wgt>
<wgt id='1101'> +7.4462981e+04 </wgt>
<wgt id='1102'> +7.4542759e+04 </wgt>
<wgt id='1103'> +7.4537561e+04 </wgt>
<wgt id='1104'> +7.4564199e+04 </wgt>
<wgt id='1105'> +7.4476151e+04 </wgt>
<wgt id='1106'> +7.4507719e+04 </wgt>
<wgt id='1107'> +7.4497386e+04 </wgt>
<wgt id='1108'> +7.4491354e+04 </wgt>
<wgt id='1109'> +7.4494749e+04 </wgt>
<wgt id='1110'> +7.4519529e+04 </wgt>
<wgt id='1111'> +7.3267492e+04 </wgt>
<wgt id='1112'> +7.5057476e+04 </wgt>
<wgt id='1113'> +7.4519529e+04 </wgt>
<wgt id='1114'> +7.4965526e+04 </wgt>
<wgt id='1115'> +7.5882175e+04 </wgt>
<wgt id='1116'> +7.4074336e+04 </wgt>
<wgt id='1117'> +6.9961831e+04 </wgt>
<wgt id='1118'> +7.2452792e+04 </wgt>
<wgt id='1119'> +7.6783797e+04 </wgt>
<wgt id='1120'> +7.4892556e+04 </wgt>
<wgt id='1121'> +7.6149452e+04 </wgt>
<wgt id='1122'> +7.5898265e+04 </wgt>
<wgt id='1123'> +7.0121149e+04 </wgt>
<wgt id='1124'> +7.1620230e+04 </wgt>
<wgt id='1125'> +7.3051273e+04 </wgt>
<wgt id='1126'> +7.2758080e+04 </wgt>
<wgt id='1127'> +7.5717569e+04 </wgt>
<wgt id='1128'> +7.7646999e+04 </wgt>
<wgt id='1129'> +7.3494094e+04 </wgt>
<wgt id='1130'> +7.2754222e+04 </wgt>
<wgt id='1131'> +7.5235625e+04 </wgt>
<wgt id='1132'> +7.5430527e+04 </wgt>
<wgt id='1133'> +7.4789085e+04 </wgt>
<wgt id='1134'> +7.5824883e+04 </wgt>
<wgt id='1135'> +7.8140504e+04 </wgt>
<wgt id='1136'> +7.7521555e+04 </wgt>
<wgt id='1137'> +7.1946369e+04 </wgt>
<wgt id='1138'> +7.5944437e+04 </wgt>
<wgt id='1139'> +7.6345936e+04 </wgt>
<wgt id='1140'> +7.2915516e+04 </wgt>
<wgt id='1141'> +7.4945456e+04 </wgt>
<wgt id='1142'> +7.1263676e+04 </wgt>
<wgt id='1143'> +7.5467668e+04 </wgt>
<wgt id='1144'> +7.6645392e+04 </wgt>
<wgt id='1145'> +7.4235101e+04 </wgt>
<wgt id='1146'> +7.8312757e+04 </wgt>
<wgt id='1147'> +7.3238099e+04 </wgt>
<wgt id='1148'> +7.4319409e+04 </wgt>
<wgt id='1149'> +7.7854052e+04 </wgt>
<wgt id='1150'> +7.3683804e+04 </wgt>
<wgt id='1151'> +7.3067192e+04 </wgt>
<wgt id='1152'> +7.1718145e+04 </wgt>
<wgt id='1153'> +7.7840580e+04 </wgt>
<wgt id='1154'> +7.0371584e+04 </wgt>
<wgt id='1155'> +7.3027113e+04 </wgt>
<wgt id='1156'> +7.3390557e+04 </wgt>
<wgt id='1157'> +7.1670161e+04 </wgt>
<wgt id='1158'> +6.8357278e+04 </wgt>
<wgt id='1159'> +7.4870716e+04 </wgt>
<wgt id='1160'> +8.0291211e+04 </wgt>
<wgt id='1161'> +7.3730696e+04 </wgt>
<wgt id='1162'> +7.5559803e+04 </wgt>
<wgt id='1163'> +7.3426019e+04 </wgt>
<wgt id='1164'> +7.2735865e+04 </wgt>
<wgt id='1165'> +7.6709034e+04 </wgt>
<wgt id='1166'> +7.6807384e+04 </wgt>
<wgt id='1167'> +7.5671931e+04 </wgt>
<wgt id='1168'> +7.6850171e+04 </wgt>
<wgt id='1169'> +7.1712227e+04 </wgt>
<wgt id='1170'> +7.4777745e+04 </wgt>
<wgt id='1171'> +7.6182470e+04 </wgt>
<wgt id='1172'> +7.3415066e+04 </wgt>
<wgt id='1173'> +7.5677156e+04 </wgt>
<wgt id='1174'> +7.8895654e+04 </wgt>
<wgt id='1175'> +7.5938789e+04 </wgt>
<wgt id='1176'> +7.5429408e+04 </wgt>
<wgt id='1177'> +7.5208811e+04 </wgt>
<wgt id='1178'> +7.5730536e+04 </wgt>
<wgt id='1179'> +7.2074939e+04 </wgt>
<wgt id='1180'> +7.3662377e+04 </wgt>
<wgt id='1181'> +7.6000329e+04 </wgt>
<wgt id='1182'> +7.6122512e+04 </wgt>
<wgt id='1183'> +7.7094206e+04 </wgt>
<wgt id='1184'> +7.5091465e+04 </wgt>
<wgt id='1185'> +7.0651000e+04 </wgt>
<wgt id='1186'> +7.4079593e+04 </wgt>
<wgt id='1187'> +7.5305733e+04 </wgt>
<wgt id='1188'> +7.3484484e+04 </wgt>
<wgt id='1189'> +7.3901840e+04 </wgt>
<wgt id='1190'> +7.8455245e+04 </wgt>
<wgt id='1191'> +7.7203207e+04 </wgt>
<wgt id='1192'> +7.3383599e+04 </wgt>
<wgt id='1193'> +7.1492236e+04 </wgt>
<wgt id='1194'> +7.5755579e+04 </wgt>
<wgt id='1195'> +7.3494094e+04 </wgt>
<wgt id='1196'> +7.1805651e+04 </wgt>
<wgt id='1197'> +7.2753618e+04 </wgt>
<wgt id='1198'> +7.7022293e+04 </wgt>
<wgt id='1199'> +7.5617314e+04 </wgt>
<wgt id='1200'> +7.5677730e+04 </wgt>
<wgt id='1201'> +7.5871007e+04 </wgt>
<wgt id='1202'> +6.8229414e+04 </wgt>
<wgt id='1203'> +7.4286034e+04 </wgt>
<wgt id='1204'> +7.4436663e+04 </wgt>
<wgt id='1205'> +7.3182486e+04 </wgt>
<wgt id='1206'> +7.2232463e+04 </wgt>
<wgt id='1207'> +7.5741224e+04 </wgt>
<wgt id='1208'> +7.1834138e+04 </wgt>
<wgt id='1209'> +7.8474009e+04 </wgt>
<wgt id='1210'> +6.9421171e+04 </wgt>
<wgt id='1211'> +7.6088802e+04 </wgt>
<wgt id='1212'> +7.8351209e+04 </wgt>
<wgt id='1213'> +7.1760120e+04 </wgt>
<wgt id='1214'> +7.4430366e+04 </wgt>
<wgt id='1215'> +6.9182764e+04 </wgt>
<wgt id='1216'> +6.9717425e+04 </wgt>
<wgt id='1217'> +7.1249631e+04 </wgt>
<wgt id='1218'> +7.2766837e+04 </wgt>
<wgt id='1219'> +7.3802030e+04 </wgt>
<wgt id='1220'> +7.4977086e+04 </wgt>
<wgt id='1221'> +7.6611270e+04 </wgt>
<wgt id='1222'> +7.7168217e+04 </wgt>
<wgt id='1223'> +7.3313533e+04 </wgt>
<wgt id='1224'> +7.2683524e+04 </wgt>
<wgt id='1225'> +7.4047530e+04 </wgt>
<wgt id='1226'> +7.2929684e+04 </wgt>
<wgt id='1227'> +7.3690864e+04 </wgt>
<wgt id='1228'> +7.3213109e+04 </wgt>
<wgt id='1229'> +7.3260861e+04 </wgt>
<wgt id='1230'> +7.3437323e+04 </wgt>
<wgt id='1231'> +7.3206353e+04 </wgt>
<wgt id='1232'> +7.3467078e+04 </wgt>
<wgt id='1233'> +7.3363246e+04 </wgt>
<wgt id='1234'> +7.3234283e+04 </wgt>
<wgt id='1235'> +7.3323898e+04 </wgt>
<wgt id='1236'> +7.3401075e+04 </wgt>
<wgt id='1237'> +7.3279018e+04 </wgt>
<wgt id='1238'> +7.3273152e+04 </wgt>
<wgt id='1239'> +7.3126899e+04 </wgt>
<wgt id='1240'> +7.3304835e+04 </wgt>
<wgt id='1241'> +7.3557269e+04 </wgt>
<wgt id='1242'> +7.3422952e+04 </wgt>
<wgt id='1243'> +7.3303643e+04 </wgt>
<wgt id='1244'> +7.3299795e+04 </wgt>
<wgt id='1245'> +7.3343628e+04 </wgt>
<wgt id='1246'> +7.3336329e+04 </wgt>
<wgt id='1247'> +7.3434265e+04 </wgt>
<wgt id='1248'> +7.3102169e+04 </wgt>
<wgt id='1249'> +7.3290653e+04 </wgt>
<wgt id='1250'> +7.3175096e+04 </wgt>
<wgt id='1251'> +7.3609642e+04 </wgt>
<wgt id='1252'> +7.3556112e+04 </wgt>
<wgt id='1253'> +7.2125543e+04 </wgt>
<wgt id='1254'> +7.3087710e+04 </wgt>
<wgt id='1255'> +7.3601347e+04 </wgt>
<wgt id='1256'> +7.3363899e+04 </wgt>
<wgt id='1257'> +7.3128088e+04 </wgt>
<wgt id='1258'> +7.3557961e+04 </wgt>
<wgt id='1259'> +7.3454162e+04 </wgt>
<wgt id='1260'> +7.2852425e+04 </wgt>
<wgt id='1261'> +7.3407236e+04 </wgt>
<wgt id='1262'> +7.3425378e+04 </wgt>
<wgt id='1263'> +7.3197817e+04 </wgt>
<wgt id='1264'> +7.3551781e+04 </wgt>
<wgt id='1265'> +7.3285541e+04 </wgt>
<wgt id='1266'> +7.3334778e+04 </wgt>
<wgt id='1267'> +7.3325103e+04 </wgt>
<wgt id='1268'> +7.3447265e+04 </wgt>
<wgt id='1269'> +7.3125554e+04 </wgt>
<wgt id='1270'> +7.3239869e+04 </wgt>
<wgt id='1271'> +7.3631234e+04 </wgt>
<wgt id='1272'> +7.2997680e+04 </wgt>
<wgt id='1273'> +7.3227014e+04 </wgt>
<wgt id='1274'> +7.3868103e+04 </wgt>
<wgt id='1275'> +7.3386972e+04 </wgt>
<wgt id='1276'> +7.3668982e+04 </wgt>
<wgt id='1277'> +7.3673749e+04 </wgt>
<wgt id='1278'> +7.3124450e+04 </wgt>
<wgt id='1279'> +7.3512333e+04 </wgt>
<wgt id='1280'> +7.3216554e+04 </wgt>
<wgt id='1281'> +7.3406796e+04 </wgt>
<wgt id='1282'> +7.3048653e+04 </wgt>
<wgt id='1283'> +7.3685873e+04 </wgt>
<wgt id='1284'> +7.3438704e+04 </wgt>
<wgt id='1285'> +7.3452512e+04 </wgt>
<wgt id='1286'> +7.3333011e+04 </wgt>
<wgt id='1287'> +7.3680834e+04 </wgt>
<wgt id='1288'> +7.3066632e+04 </wgt>
<wgt id='1289'> +7.3129258e+04 </wgt>
<wgt id='1290'> +7.3389272e+04 </wgt>
<wgt id='1291'> +7.3122788e+04 </wgt>
<wgt id='1292'> +7.3275346e+04 </wgt>
<wgt id='1293'> +7.3503924e+04 </wgt>
<wgt id='1294'> +7.3501941e+04 </wgt>
<wgt id='1295'> +7.3452213e+04 </wgt>
<wgt id='1296'> +7.3416868e+04 </wgt>
<wgt id='1297'> +7.3160576e+04 </wgt>
<wgt id='1298'> +7.3164864e+04 </wgt>
<wgt id='1299'> +7.3063873e+04 </wgt>
<wgt id='1300'> +7.3463617e+04 </wgt>
<wgt id='1301'> +7.3249500e+04 </wgt>
<wgt id='1302'> +7.3318504e+04 </wgt>
<wgt id='1303'> +7.3282606e+04 </wgt>
<wgt id='1304'> +7.3383601e+04 </wgt>
<wgt id='1305'> +7.3402681e+04 </wgt>
<wgt id='1306'> +7.3305968e+04 </wgt>
<wgt id='1307'> +7.3290043e+04 </wgt>
<wgt id='1308'> +7.3269503e+04 </wgt>
<wgt id='1309'> +7.3387010e+04 </wgt>
<wgt id='1310'> +7.3173608e+04 </wgt>
<wgt id='1311'> +7.3445584e+04 </wgt>
<wgt id='1312'> +7.3300298e+04 </wgt>
<wgt id='1313'> +7.3193655e+04 </wgt>
<wgt id='1314'> +7.3454684e+04 </wgt>
<wgt id='1315'> +7.3307272e+04 </wgt>
<wgt id='1316'> +7.3384462e+04 </wgt>
<wgt id='1317'> +7.3334585e+04 </wgt>
<wgt id='1318'> +7.3413521e+04 </wgt>
<wgt id='1319'> +7.3250691e+04 </wgt>
<wgt id='1320'> +7.3320865e+04 </wgt>
<wgt id='1321'> +7.3376901e+04 </wgt>
<wgt id='1322'> +7.3245745e+04 </wgt>
<wgt id='1323'> +7.3378590e+04 </wgt>
<wgt id='1324'> +7.2143187e+04 </wgt>
<wgt id='1325'> +7.4587584e+04 </wgt>
<wgt id='1326'> +7.2674444e+04 </wgt>
<wgt id='1327'> +7.1637589e+04 </wgt>
<wgt id='1328'> +7.2751115e+04 </wgt>
<wgt id='1329'> +7.2652791e+04 </wgt>
<wgt id='1330'> +7.3756951e+04 </wgt>
<wgt id='1331'> +7.3115248e+04 </wgt>
<wgt id='1332'> +7.2767182e+04 </wgt>
<wgt id='1333'> +7.5884872e+04 </wgt>
<wgt id='1334'> +7.0048243e+04 </wgt>
<wgt id='1335'> +7.0854724e+04 </wgt>
<wgt id='1336'> +7.3458365e+04 </wgt>
<wgt id='1337'> +7.2485021e+04 </wgt>
<wgt id='1338'> +7.1827578e+04 </wgt>
<wgt id='1339'> +7.0445132e+04 </wgt>
<wgt id='1340'> +7.3336104e+04 </wgt>
<wgt id='1341'> +7.0022131e+04 </wgt>
<wgt id='1342'> +7.5641104e+04 </wgt>
<wgt id='1343'> +7.2250481e+04 </wgt>
<wgt id='1344'> +7.1137443e+04 </wgt>
<wgt id='1345'> +7.4040446e+04 </wgt>
<wgt id='1346'> +7.1735742e+04 </wgt>
<wgt id='1347'> +7.5820407e+04 </wgt>
<wgt id='1348'> +7.4333187e+04 </wgt>
<wgt id='1349'> +7.2729288e+04 </wgt>
<wgt id='1350'> +6.9505250e+04 </wgt>
<wgt id='1351'> +7.3318898e+04 </wgt>
<wgt id='1352'> +7.0949255e+04 </wgt>
<wgt id='1353'> +7.2680102e+04 </wgt>
<wgt id='1354'> +7.2349663e+04 </wgt>
<wgt id='1355'> +7.2988686e+04 </wgt>
<wgt id='1356'> +7.4639188e+04 </wgt>
<wgt id='1357'> +7.1353839e+04 </wgt>
<wgt id='1358'> +7.0554927e+04 </wgt>
<wgt id='1359'> +7.3621594e+04 </wgt>
<wgt id='1360'> +7.3430985e+04 </wgt>
<wgt id='1361'> +7.4805751e+04 </wgt>
<wgt id='1362'> +7.4356899e+04 </wgt>
<wgt id='1363'> +7.1311518e+04 </wgt>
<wgt id='1364'> +7.4804479e+04 </wgt>
<wgt id='1365'> +7.1882572e+04 </wgt>
<wgt id='1366'> +7.3665809e+04 </wgt>
<wgt id='1367'> +7.3610216e+04 </wgt>
<wgt id='1368'> +7.0390953e+04 </wgt>
<wgt id='1369'> +7.5783661e+04 </wgt>
<wgt id='1370'> +7.0987039e+04 </wgt>
<wgt id='1371'> +7.2291814e+04 </wgt>
<wgt id='1372'> +7.1323677e+04 </wgt>
<wgt id='1373'> +7.1572430e+04 </wgt>
<wgt id='1374'> +7.3269203e+04 </wgt>
<wgt id='1375'> +7.2884064e+04 </wgt>
<wgt id='1376'> +7.2333617e+04 </wgt>
<wgt id='1377'> +7.1232031e+04 </wgt>
<wgt id='1378'> +7.0213206e+04 </wgt>
<wgt id='1379'> +7.4310576e+04 </wgt>
<wgt id='1380'> +7.0921950e+04 </wgt>
<wgt id='1381'> +7.3227466e+04 </wgt>
<wgt id='1382'> +7.1818054e+04 </wgt>
<wgt id='1383'> +7.0208680e+04 </wgt>
<wgt id='1384'> +7.3558166e+04 </wgt>
<wgt id='1385'> +6.9780188e+04 </wgt>
<wgt id='1386'> +7.3189102e+04 </wgt>
<wgt id='1387'> +7.4109427e+04 </wgt>
<wgt id='1388'> +7.6028332e+04 </wgt>
<wgt id='1389'> +7.1400728e+04 </wgt>
<wgt id='1390'> +6.9069208e+04 </wgt>
<wgt id='1391'> +7.2137868e+04 </wgt>
<wgt id='1392'> +7.1847023e+04 </wgt>
<wgt id='1393'> +7.3104506e+04 </wgt>
<wgt id='1394'> +7.1882572e+04 </wgt>
<wgt id='1395'> +7.2373365e+04 </wgt>
<wgt id='1396'> +7.1926150e+04 </wgt>
<wgt id='1397'> +7.4014459e+04 </wgt>
<wgt id='1398'> +7.3012757e+04 </wgt>
<wgt id='1399'> +7.2056851e+04 </wgt>
<wgt id='1400'> +7.3056896e+04 </wgt>
<wgt id='1401'> +7.1562573e+04 </wgt>
<wgt id='1402'> +7.2890080e+04 </wgt>
<wgt id='1403'> +7.2938312e+04 </wgt>
<wgt id='1404'> +7.4151160e+04 </wgt>
<wgt id='1405'> +7.2107806e+04 </wgt>
<wgt id='1406'> +7.1349733e+04 </wgt>
<wgt id='1407'> +7.2444383e+04 </wgt>
<wgt id='1408'> +7.6716587e+04 </wgt>
<wgt id='1409'> +7.2278363e+04 </wgt>
<wgt id='1410'> +7.5036690e+04 </wgt>
<wgt id='1411'> +7.3911572e+04 </wgt>
<wgt id='1412'> +7.2488806e+04 </wgt>
<wgt id='1413'> +7.3641181e+04 </wgt>
<wgt id='1414'> +7.1503189e+04 </wgt>
<wgt id='1415'> +7.0742037e+04 </wgt>
<wgt id='1416'> +7.4251922e+04 </wgt>
<wgt id='1417'> +7.3422360e+04 </wgt>
<wgt id='1418'> +7.4726506e+04 </wgt>
<wgt id='1419'> +7.2789671e+04 </wgt>
<wgt id='1420'> +7.2104588e+04 </wgt>
<wgt id='1421'> +7.2465529e+04 </wgt>
<wgt id='1422'> +7.3380853e+04 </wgt>
<wgt id='1423'> +7.2923133e+04 </wgt>
<wgt id='1424'> +7.3627584e+04 </wgt>
<wgt id='1425'> +7.5445558e+04 </wgt>
<wgt id='1426'> +7.3035482e+04 </wgt>
<wgt id='1427'> +7.3275590e+04 </wgt>
<wgt id='1428'> +7.6352341e+04 </wgt>
<wgt id='1429'> +7.2635588e+04 </wgt>
<wgt id='1430'> +7.2732759e+04 </wgt>
<wgt id='1431'> +7.2711033e+04 </wgt>
<wgt id='1432'> +7.3340769e+04 </wgt>
<wgt id='1433'> +7.2581606e+04 </wgt>
<wgt id='1434'> +7.2431478e+04 </wgt>
<wgt id='1435'> +7.2506121e+04 </wgt>
<wgt id='1436'> +7.2279177e+04 </wgt>
<wgt id='1437'> +7.3012266e+04 </wgt>
<wgt id='1438'> +7.2866624e+04 </wgt>
<wgt id='1439'> +7.2570217e+04 </wgt>
<wgt id='1440'> +7.2780652e+04 </wgt>
<wgt id='1441'> +7.2864880e+04 </wgt>
<wgt id='1442'> +7.2437815e+04 </wgt>
<wgt id='1443'> +7.2718057e+04 </wgt>
<wgt id='1444'> +7.2426863e+04 </wgt>
<wgt id='1445'> +7.2198471e+04 </wgt>
<wgt id='1446'> +7.3017274e+04 </wgt>
<wgt id='1447'> +7.2725766e+04 </wgt>
<wgt id='1448'> +7.2980260e+04 </wgt>
<wgt id='1449'> +7.2534860e+04 </wgt>
<wgt id='1450'> +7.2345647e+04 </wgt>
<wgt id='1451'> +7.2900815e+04 </wgt>
<wgt id='1452'> +7.3256489e+04 </wgt>
<wgt id='1453'> +7.2747464e+04 </wgt>
<wgt id='1454'> +7.2769051e+04 </wgt>
<wgt id='1455'> +7.2599954e+04 </wgt>
<wgt id='1456'> +7.2684026e+04 </wgt>
<wgt id='1457'> +7.2703592e+04 </wgt>
<wgt id='1458'> +7.2344477e+04 </wgt>
<wgt id='1459'> +7.2838541e+04 </wgt>
<wgt id='1460'> +7.2953066e+04 </wgt>
<wgt id='1461'> +7.2735670e+04 </wgt>
<wgt id='1462'> +7.2979153e+04 </wgt>
<wgt id='1463'> +7.2793730e+04 </wgt>
<wgt id='1464'> +7.2723102e+04 </wgt>
<wgt id='1465'> +7.2632198e+04 </wgt>
<wgt id='1466'> +7.2849560e+04 </wgt>
<wgt id='1467'> +7.2835274e+04 </wgt>
<wgt id='1468'> +7.2870557e+04 </wgt>
<wgt id='1469'> +7.2685689e+04 </wgt>
<wgt id='1470'> +7.2517248e+04 </wgt>
<wgt id='1471'> +7.2803416e+04 </wgt>
<wgt id='1472'> +7.2795125e+04 </wgt>
<wgt id='1473'> +7.2857571e+04 </wgt>
<wgt id='1474'> +7.2479802e+04 </wgt>
<wgt id='1475'> +7.2699406e+04 </wgt>
<wgt id='1476'> +7.2638605e+04 </wgt>
<wgt id='1477'> +7.2685074e+04 </wgt>
<wgt id='1478'> +7.2629034e+04 </wgt>
<wgt id='1479'> +7.2810559e+04 </wgt>
<wgt id='1480'> +7.2835959e+04 </wgt>
<wgt id='1481'> +7.2772835e+04 </wgt>
<wgt id='1482'> +7.2635588e+04 </wgt>
<wgt id='1483'> +7.2732759e+04 </wgt>
<wgt id='1484'> +7.7064078e+04 </wgt>
<wgt id='1485'> +7.4696365e+04 </wgt>
<wgt id='1486'> +7.8061878e+04 </wgt>
<wgt id='1487'> +7.5306822e+04 </wgt>
<wgt id='1488'> +7.6146146e+04 </wgt>
<wgt id='1489'> +7.6507018e+04 </wgt>
<wgt id='1490'> +7.5075671e+04 </wgt>
<wgt id='1491'> +7.5985487e+04 </wgt>
<wgt id='1492'> +7.4168630e+04 </wgt>
<wgt id='1493'> +7.9047631e+04 </wgt>
<wgt id='1494'> +7.7340241e+04 </wgt>
<wgt id='1495'> +7.3163732e+04 </wgt>
<wgt id='1496'> +7.5710379e+04 </wgt>
<wgt id='1497'> +7.5136101e+04 </wgt>
<wgt id='1498'> +7.8940856e+04 </wgt>
<wgt id='1499'> +7.7513039e+04 </wgt>
<wgt id='1500'> +7.6851944e+04 </wgt>
<wgt id='1501'> +7.7177867e+04 </wgt>
<wgt id='1502'> +7.6069335e+04 </wgt>
<wgt id='1503'> +7.7003067e+04 </wgt>
<wgt id='1504'> +7.8371870e+04 </wgt>
<wgt id='1505'> +7.6691784e+04 </wgt>
<wgt id='1506'> +7.6667244e+04 </wgt>
<wgt id='1507'> +7.5943574e+04 </wgt>
<wgt id='1508'> +7.4755770e+04 </wgt>
<wgt id='1509'> +7.6675033e+04 </wgt>
<wgt id='1510'> +7.8745428e+04 </wgt>
<wgt id='1511'> +7.7576379e+04 </wgt>
<wgt id='1512'> +7.7685031e+04 </wgt>
<wgt id='1513'> +7.7625037e+04 </wgt>
<wgt id='1514'> +7.5288749e+04 </wgt>
<wgt id='1515'> +7.6701931e+04 </wgt>
<wgt id='1516'> +7.5465828e+04 </wgt>
<wgt id='1517'> +7.7048385e+04 </wgt>
<wgt id='1518'> +7.6823546e+04 </wgt>
<wgt id='1519'> +7.7679890e+04 </wgt>
<wgt id='1520'> +7.7989699e+04 </wgt>
<wgt id='1521'> +7.6615892e+04 </wgt>
<wgt id='1522'> +7.8383192e+04 </wgt>
<wgt id='1523'> +7.8775088e+04 </wgt>
<wgt id='1524'> +7.8060438e+04 </wgt>
<wgt id='1525'> +7.8214786e+04 </wgt>
<wgt id='1526'> +7.6865005e+04 </wgt>
<wgt id='1527'> +7.9077550e+04 </wgt>
<wgt id='1528'> +7.7806265e+04 </wgt>
<wgt id='1529'> +7.6809714e+04 </wgt>
<wgt id='1530'> +7.7903580e+04 </wgt>
<wgt id='1531'> +7.6650416e+04 </wgt>
<wgt id='1532'> +7.6862422e+04 </wgt>
<wgt id='1533'> +7.8063557e+04 </wgt>
<wgt id='1534'> +7.6051120e+04 </wgt>
<wgt id='1535'> +7.8495828e+04 </wgt>
<wgt id='1536'> +7.7042565e+04 </wgt>
<wgt id='1537'> +7.6383863e+04 </wgt>
<wgt id='1538'> +7.7726289e+04 </wgt>
<wgt id='1539'> +7.7756767e+04 </wgt>
<wgt id='1540'> +7.7981024e+04 </wgt>
<wgt id='1541'> +7.7603139e+04 </wgt>
<wgt id='1542'> +7.7317529e+04 </wgt>
<wgt id='1543'> +7.7246055e+04 </wgt>
<wgt id='1544'> +7.8078528e+04 </wgt>
<wgt id='1545'> +7.8105466e+04 </wgt>
<wgt id='1546'> +7.7958698e+04 </wgt>
<wgt id='1547'> +7.8087049e+04 </wgt>
<wgt id='1548'> +7.7002748e+04 </wgt>
<wgt id='1549'> +7.7568485e+04 </wgt>
<wgt id='1550'> +7.6492281e+04 </wgt>
<wgt id='1551'> +8.0243606e+04 </wgt>
<wgt id='1552'> +7.6981450e+04 </wgt>
<wgt id='1553'> +8.0044022e+04 </wgt>
<wgt id='1554'> +7.8637545e+04 </wgt>
<wgt id='1555'> +7.6269034e+04 </wgt>
<wgt id='1556'> +7.6295316e+04 </wgt>
<wgt id='1557'> +7.6892958e+04 </wgt>
<wgt id='1558'> +7.7104742e+04 </wgt>
<wgt id='1559'> +7.8612681e+04 </wgt>
<wgt id='1560'> +7.8284173e+04 </wgt>
<wgt id='1561'> +7.6476635e+04 </wgt>
<wgt id='1562'> +7.7846260e+04 </wgt>
<wgt id='1563'> +7.5125112e+04 </wgt>
<wgt id='1564'> +7.6733487e+04 </wgt>
<wgt id='1565'> +7.6654917e+04 </wgt>
<wgt id='1566'> +7.7324032e+04 </wgt>
<wgt id='1567'> +7.8591447e+04 </wgt>
<wgt id='1568'> +7.6698321e+04 </wgt>
<wgt id='1569'> +7.7001649e+04 </wgt>
<wgt id='1570'> +7.8733915e+04 </wgt>
<wgt id='1571'> +7.5515412e+04 </wgt>
<wgt id='1572'> +7.5543318e+04 </wgt>
<wgt id='1573'> +7.6426316e+04 </wgt>
<wgt id='1574'> +7.5546186e+04 </wgt>
<wgt id='1575'> +7.4607113e+04 </wgt>
<wgt id='1576'> +7.8855795e+04 </wgt>
<wgt id='1577'> +7.4817166e+04 </wgt>
<wgt id='1578'> +7.7822414e+04 </wgt>
<wgt id='1579'> +7.7453703e+04 </wgt>
<wgt id='1580'> +7.8995073e+04 </wgt>
<wgt id='1581'> +7.7483916e+04 </wgt>
<wgt id='1582'> +7.5513538e+04 </wgt>
<wgt id='1583'> +7.6774535e+04 </wgt>
<wgt id='1584'> +7.5712090e+04 </wgt>
<wgt id='1585'> +7.5529981e+04 </wgt>
<wgt id='1586'> +6.3865324e+04 </wgt>
<wgt id='1587'> +7.2597139e+04 </wgt>
<wgt id='1588'> +7.2635588e+04 </wgt>
<wgt id='1589'> +7.2764029e+04 </wgt>
<wgt id='1590'> +7.2375018e+04 </wgt>
<wgt id='1591'> +7.2732759e+04 </wgt>
<wgt id='1592'> +7.2733952e+04 </wgt>
<wgt id='1593'> +7.5158688e+04 </wgt>
<wgt id='1594'> +7.5104564e+04 </wgt>
<wgt id='1595'> +7.3601420e+04 </wgt>
<wgt id='1596'> +7.4720306e+04 </wgt>
<wgt id='1597'> +7.4735349e+04 </wgt>
<wgt id='1598'> +7.3927939e+04 </wgt>
<wgt id='1599'> +7.5871225e+04 </wgt>
<wgt id='1600'> +7.4810674e+04 </wgt>
<wgt id='1601'> +7.5513282e+04 </wgt>
<wgt id='1602'> +7.4748352e+04 </wgt>
<wgt id='1603'> +7.5616384e+04 </wgt>
<wgt id='1604'> +7.5612614e+04 </wgt>
<wgt id='1605'> +7.3796638e+04 </wgt>
<wgt id='1606'> +7.4863603e+04 </wgt>
<wgt id='1607'> +7.5980479e+04 </wgt>
<wgt id='1608'> +7.5327564e+04 </wgt>
<wgt id='1609'> +7.4744044e+04 </wgt>
<wgt id='1610'> +7.5815303e+04 </wgt>
<wgt id='1611'> +7.4329857e+04 </wgt>
<wgt id='1612'> +7.5701616e+04 </wgt>
<wgt id='1613'> +7.4521947e+04 </wgt>
<wgt id='1614'> +7.5197073e+04 </wgt>
<wgt id='1615'> +7.5074942e+04 </wgt>
<wgt id='1616'> +7.4751260e+04 </wgt>
<wgt id='1617'> +7.5383183e+04 </wgt>
<wgt id='1618'> +7.5423013e+04 </wgt>
<wgt id='1619'> +7.4311709e+04 </wgt>
<wgt id='1620'> +7.5823338e+04 </wgt>
<wgt id='1621'> +7.4779940e+04 </wgt>
<wgt id='1622'> +7.6553436e+04 </wgt>
<wgt id='1623'> +7.4723092e+04 </wgt>
<wgt id='1624'> +7.4951683e+04 </wgt>
<wgt id='1625'> +7.5048016e+04 </wgt>
<wgt id='1626'> +7.4523952e+04 </wgt>
<wgt id='1627'> +7.6342888e+04 </wgt>
<wgt id='1628'> +7.5452651e+04 </wgt>
<wgt id='1629'> +7.5442515e+04 </wgt>
<wgt id='1630'> +7.4029884e+04 </wgt>
<wgt id='1631'> +7.5618531e+04 </wgt>
<wgt id='1632'> +7.3799837e+04 </wgt>
<wgt id='1633'> +7.6542058e+04 </wgt>
<wgt id='1634'> +7.5893393e+04 </wgt>
<wgt id='1635'> +7.4939796e+04 </wgt>
<wgt id='1636'> +7.5306093e+04 </wgt>
<wgt id='1637'> +7.6206316e+04 </wgt>
<wgt id='1638'> +7.4756071e+04 </wgt>
<wgt id='1639'> +7.5286697e+04 </wgt>
<wgt id='1640'> +7.6043326e+04 </wgt>
<wgt id='1641'> +7.4945818e+04 </wgt>
<wgt id='1642'> +7.6455553e+04 </wgt>
<wgt id='1643'> +7.4394769e+04 </wgt>
<wgt id='1644'> +7.6776758e+04 </wgt>
<wgt id='1645'> +7.3465866e+04 </wgt>
<wgt id='1646'> +7.4210253e+04 </wgt>
<wgt id='1647'> +7.6898228e+04 </wgt>
<wgt id='1648'> +7.5964713e+04 </wgt>
<wgt id='1649'> +7.6081934e+04 </wgt>
<wgt id='1650'> +7.7042079e+04 </wgt>
<wgt id='1651'> +7.3387380e+04 </wgt>
<wgt id='1652'> +7.5060504e+04 </wgt>
<wgt id='1653'> +7.5110265e+04 </wgt>
<wgt id='1654'> +7.5206656e+04 </wgt>
<wgt id='1655'> +7.5254251e+04 </wgt>
<wgt id='1656'> +7.7470910e+04 </wgt>
<wgt id='1657'> +7.6293256e+04 </wgt>
<wgt id='1658'> +7.7812530e+04 </wgt>
<wgt id='1659'> +7.8615994e+04 </wgt>
<wgt id='1660'> +7.6596169e+04 </wgt>
<wgt id='1661'> +7.8428982e+04 </wgt>
<wgt id='1662'> +7.6230408e+04 </wgt>
<wgt id='1663'> +7.9114246e+04 </wgt>
<wgt id='1664'> +7.7110889e+04 </wgt>
<wgt id='1665'> +7.8133062e+04 </wgt>
<wgt id='1666'> +7.7341409e+04 </wgt>
<wgt id='1667'> +7.8056633e+04 </wgt>
<wgt id='1668'> +7.6995809e+04 </wgt>
<wgt id='1669'> +7.7658174e+04 </wgt>
<wgt id='1670'> +7.7543458e+04 </wgt>
<wgt id='1671'> +7.7694350e+04 </wgt>
<wgt id='1672'> +7.6321857e+04 </wgt>
<wgt id='1673'> +7.7471499e+04 </wgt>
<wgt id='1674'> +7.7382510e+04 </wgt>
<wgt id='1675'> +7.8389586e+04 </wgt>
<wgt id='1676'> +7.7282872e+04 </wgt>
<wgt id='1677'> +7.6314131e+04 </wgt>
<wgt id='1678'> +7.7770804e+04 </wgt>
<wgt id='1679'> +7.7707036e+04 </wgt>
<wgt id='1680'> +7.8041575e+04 </wgt>
<wgt id='1681'> +7.8041357e+04 </wgt>
<wgt id='1682'> +7.6698545e+04 </wgt>
<wgt id='1683'> +7.7074851e+04 </wgt>
<wgt id='1684'> +7.7861267e+04 </wgt>
<wgt id='1685'> +7.8753220e+04 </wgt>
<wgt id='1686'> +7.6843056e+04 </wgt>
<wgt id='1687'> +7.7713739e+04 </wgt>
<wgt id='1688'> +7.6841415e+04 </wgt>
<wgt id='1689'> +7.7115070e+04 </wgt>
<wgt id='1690'> +7.8366289e+04 </wgt>
<wgt id='1691'> +7.7553912e+04 </wgt>
<wgt id='1692'> +7.7937981e+04 </wgt>
<wgt id='1693'> +7.7515799e+04 </wgt>
<wgt id='1694'> +7.7869721e+04 </wgt>
<wgt id='1695'> +7.6871562e+04 </wgt>
<wgt id='1696'> +7.8939776e+04 </wgt>
<wgt id='1697'> +7.8290201e+04 </wgt>
<wgt id='1698'> +7.7010731e+04 </wgt>
<wgt id='1699'> +7.6932908e+04 </wgt>
<wgt id='1700'> +7.8104601e+04 </wgt>
<wgt id='1701'> +7.7256908e+04 </wgt>
<wgt id='1702'> +7.8015578e+04 </wgt>
<wgt id='1703'> +7.6978224e+04 </wgt>
<wgt id='1704'> +7.8010439e+04 </wgt>
<wgt id='1705'> +7.6949234e+04 </wgt>
<wgt id='1706'> +7.8499131e+04 </wgt>
<wgt id='1707'> +7.6061550e+04 </wgt>
<wgt id='1708'> +7.8205025e+04 </wgt>
<wgt id='1709'> +7.7002701e+04 </wgt>
<wgt id='1710'> +7.8473202e+04 </wgt>
<wgt id='1711'> +7.6899036e+04 </wgt>
<wgt id='1712'> +7.8338575e+04 </wgt>
<wgt id='1713'> +7.9442872e+04 </wgt>
<wgt id='1714'> +7.5510431e+04 </wgt>
<wgt id='1715'> +7.4544966e+04 </wgt>
<wgt id='1716'> +7.6380380e+04 </wgt>
<wgt id='1717'> +7.3907870e+04 </wgt>
<wgt id='1718'> +7.4099547e+04 </wgt>
<wgt id='1719'> +7.3662090e+04 </wgt>
<wgt id='1720'> +7.3977057e+04 </wgt>
<wgt id='1721'> +7.3844661e+04 </wgt>
<wgt id='1722'> +7.3901948e+04 </wgt>
<wgt id='1723'> +7.3917524e+04 </wgt>
<wgt id='1724'> +7.4099833e+04 </wgt>
<wgt id='1725'> +7.3751543e+04 </wgt>
<wgt id='1726'> +7.3766373e+04 </wgt>
<wgt id='1727'> +7.4053814e+04 </wgt>
<wgt id='1728'> +7.3363609e+04 </wgt>
<wgt id='1729'> +7.4437973e+04 </wgt>
<wgt id='1730'> +7.3470959e+04 </wgt>
<wgt id='1731'> +7.4218653e+04 </wgt>
<wgt id='1732'> +7.4187552e+04 </wgt>
<wgt id='1733'> +7.4187552e+04 </wgt>
<wgt id='1734'> +7.3332363e+04 </wgt>
<wgt id='1735'> +7.4295010e+04 </wgt>
<wgt id='1736'> +7.3677685e+04 </wgt>
<wgt id='1737'> +7.4222917e+04 </wgt>
<wgt id='1738'> +7.4290573e+04 </wgt>
<wgt id='1739'> +7.3222311e+04 </wgt>
<wgt id='1740'> +7.4148427e+04 </wgt>
<wgt id='1741'> +7.3324141e+04 </wgt>
<wgt id='1742'> +7.4007725e+04 </wgt>
<wgt id='1743'> +7.3788317e+04 </wgt>
<wgt id='1744'> +7.3837940e+04 </wgt>
<wgt id='1745'> +7.4094661e+04 </wgt>
<wgt id='1746'> +7.3774678e+04 </wgt>
<wgt id='1747'> +7.3949294e+04 </wgt>
<wgt id='1748'> +7.4374969e+04 </wgt>
<wgt id='1749'> +7.2401948e+04 </wgt>
<wgt id='1750'> +7.4469385e+04 </wgt>
<wgt id='1751'> +7.3305601e+04 </wgt>
<wgt id='1752'> +7.3856184e+04 </wgt>
<wgt id='1753'> +7.3978581e+04 </wgt>
<wgt id='1754'> +7.4160288e+04 </wgt>
<wgt id='1755'> +7.3771608e+04 </wgt>
<wgt id='1756'> +7.3710517e+04 </wgt>
<wgt id='1757'> +7.4394630e+04 </wgt>
<wgt id='1758'> +7.3434272e+04 </wgt>
<wgt id='1759'> +7.4042437e+04 </wgt>
<wgt id='1760'> +7.4287855e+04 </wgt>
<wgt id='1761'> +7.3529094e+04 </wgt>
<wgt id='1762'> +7.3752944e+04 </wgt>
<wgt id='1763'> +7.4599843e+04 </wgt>
<wgt id='1764'> +7.3803106e+04 </wgt>
<wgt id='1765'> +7.4339174e+04 </wgt>
<wgt id='1766'> +7.3756893e+04 </wgt>
<wgt id='1767'> +7.3971223e+04 </wgt>
<wgt id='1768'> +7.3970442e+04 </wgt>
<wgt id='1769'> +7.3874486e+04 </wgt>
<wgt id='1770'> +7.3739459e+04 </wgt>
<wgt id='1771'> +7.4248937e+04 </wgt>
<wgt id='1772'> +7.4038728e+04 </wgt>
<wgt id='1773'> +7.3819323e+04 </wgt>
<wgt id='1774'> +7.2834145e+04 </wgt>
<wgt id='1775'> +7.4537643e+04 </wgt>
<wgt id='1776'> +7.3911357e+04 </wgt>
<wgt id='1777'> +7.3866918e+04 </wgt>
<wgt id='1778'> +7.3746715e+04 </wgt>
<wgt id='1779'> +7.4241364e+04 </wgt>
<wgt id='1780'> +7.4271646e+04 </wgt>
<wgt id='1781'> +7.4115660e+04 </wgt>
<wgt id='1782'> +7.3907870e+04 </wgt>
<wgt id='1783'> +7.3913566e+04 </wgt>
<wgt id='1784'> +7.3834817e+04 </wgt>
<wgt id='1785'> +7.3622425e+04 </wgt>
<wgt id='1786'> +7.3204592e+04 </wgt>
<wgt id='1787'> +7.3632862e+04 </wgt>
<wgt id='1788'> +7.3436091e+04 </wgt>
<wgt id='1789'> +7.3853944e+04 </wgt>
<wgt id='1790'> +7.3032459e+04 </wgt>
<wgt id='1791'> +7.3688451e+04 </wgt>
<wgt id='1792'> +7.3914340e+04 </wgt>
<wgt id='1793'> +7.3902295e+04 </wgt>
<wgt id='1794'> +7.4228523e+04 </wgt>
<wgt id='1795'> +7.3334593e+04 </wgt>
<wgt id='1796'> +7.3745255e+04 </wgt>
<wgt id='1797'> +7.3892946e+04 </wgt>
<wgt id='1798'> +7.3586365e+04 </wgt>
<wgt id='1799'> +7.4467531e+04 </wgt>
<wgt id='1800'> +7.4297685e+04 </wgt>
<wgt id='1801'> +7.4379963e+04 </wgt>
<wgt id='1802'> +7.3737677e+04 </wgt>
<wgt id='1803'> +7.3978343e+04 </wgt>
<wgt id='1804'> +7.2723142e+04 </wgt>
<wgt id='1805'> +7.3562136e+04 </wgt>
<wgt id='1806'> +7.3466147e+04 </wgt>
<wgt id='1807'> +7.3758593e+04 </wgt>
<wgt id='1808'> +7.4037143e+04 </wgt>
<wgt id='1809'> +7.3311911e+04 </wgt>
<wgt id='1810'> +7.3869382e+04 </wgt>
<wgt id='1811'> +7.2215878e+04 </wgt>
<wgt id='1812'> +7.3757671e+04 </wgt>
<wgt id='1813'> +7.3707656e+04 </wgt>
<wgt id='1814'> +7.3724879e+04 </wgt>
<wgt id='1815'> +7.3805760e+04 </wgt>
<wgt id='1816'> +7.3754488e+04 </wgt>
<wgt id='1817'> +7.3716634e+04 </wgt>
<wgt id='1818'> +7.3828310e+04 </wgt>
<wgt id='1819'> +7.4253469e+04 </wgt>
<wgt id='1820'> +7.3784692e+04 </wgt>
<wgt id='1821'> +7.3816406e+04 </wgt>
<wgt id='1822'> +7.3787934e+04 </wgt>
<wgt id='1823'> +7.3695822e+04 </wgt>
<wgt id='1824'> +7.3869619e+04 </wgt>
<wgt id='1825'> +7.3692081e+04 </wgt>
<wgt id='1826'> +7.4551121e+04 </wgt>
<wgt id='1827'> +8.4287671e+04 </wgt>
<wgt id='1828'> +8.4421966e+04 </wgt>
<wgt id='1829'> +8.4169070e+04 </wgt>
<wgt id='1830'> +8.4516499e+04 </wgt>
<wgt id='1831'> +8.4073049e+04 </wgt>
<wgt id='1832'> +8.4342817e+04 </wgt>
<wgt id='1833'> +8.4247583e+04 </wgt>
<wgt id='1834'> +8.3927366e+04 </wgt>
<wgt id='1835'> +8.4642726e+04 </wgt>
<wgt id='1836'> +8.4014091e+04 </wgt>
<wgt id='1837'> +8.4549090e+04 </wgt>
<wgt id='1838'> +8.2646233e+04 </wgt>
<wgt id='1839'> +8.5917110e+04 </wgt>
<wgt id='1840'> +8.4684414e+04 </wgt>
<wgt id='1841'> +8.3921128e+04 </wgt>
<wgt id='1842'> +8.4461788e+04 </wgt>
<wgt id='1843'> +8.4679555e+04 </wgt>
<wgt id='1844'> +8.4054883e+04 </wgt>
<wgt id='1845'> +8.4495629e+04 </wgt>
<wgt id='1846'> +8.2497868e+04 </wgt>
<wgt id='1847'> +8.5981318e+04 </wgt>
<wgt id='1848'> +8.4175412e+04 </wgt>
<wgt id='1849'> +8.4296448e+04 </wgt>
<wgt id='1850'> +8.5168376e+04 </wgt>
<wgt id='1851'> +8.3470118e+04 </wgt>
<wgt id='1852'> +8.3749124e+04 </wgt>
<wgt id='1853'> +8.4995282e+04 </wgt>
<wgt id='1854'> +8.3177719e+04 </wgt>
<wgt id='1855'> +8.5611073e+04 </wgt>
<wgt id='1856'> +7.5063141e+04 </wgt>
<wgt id='1857'> +7.5050828e+04 </wgt>
<wgt id='1858'> +7.4952826e+04 </wgt>
<wgt id='1859'> +7.5045261e+04 </wgt>
<wgt id='1860'> +7.5061663e+04 </wgt>
<wgt id='1861'> +7.4964472e+04 </wgt>
<wgt id='1862'> +7.4813928e+04 </wgt>
<wgt id='1863'> +7.5017034e+04 </wgt>
<wgt id='1864'> +7.5040188e+04 </wgt>
<wgt id='1865'> +7.4631420e+04 </wgt>
<wgt id='1866'> +7.5171403e+04 </wgt>
<wgt id='1867'> +7.5082678e+04 </wgt>
<wgt id='1868'> +7.5254485e+04 </wgt>
<wgt id='1869'> +7.5161759e+04 </wgt>
<wgt id='1870'> +7.4698029e+04 </wgt>
<wgt id='1871'> +7.4953585e+04 </wgt>
<wgt id='1872'> +7.4761577e+04 </wgt>
<wgt id='1873'> +7.4950579e+04 </wgt>
<wgt id='1874'> +7.4748342e+04 </wgt>
<wgt id='1875'> +7.5214994e+04 </wgt>
<wgt id='1876'> +7.4814511e+04 </wgt>
<wgt id='1877'> +7.4557722e+04 </wgt>
<wgt id='1878'> +7.5082975e+04 </wgt>
<wgt id='1879'> +7.5166459e+04 </wgt>
<wgt id='1880'> +7.5351896e+04 </wgt>
<wgt id='1881'> +7.4970045e+04 </wgt>
<wgt id='1882'> +7.5290310e+04 </wgt>
<wgt id='1883'> +7.5437515e+04 </wgt>
<wgt id='1884'> +7.4353773e+04 </wgt>
<wgt id='1885'> +7.4261071e+04 </wgt>
<wgt id='1886'> +7.2143304e+04 </wgt>
<wgt id='1887'> +7.8825049e+04 </wgt>
<wgt id='1888'> +6.6892845e+04 </wgt>
<wgt id='1889'> +7.9858142e+04 </wgt>
</rwgt>
</event>
<event npLO=" -1 " npNLO=" 0 ">
 5      0 +7.4519530e+04 2.28412170e+01 7.55820760e-03 1.21664260e-01
       -1 -1    0    0    0  501 +0.0000000000e+00 +0.0000000000e+00 +4.1545242671e+00 4.1545242671e+00 0.0000000000e+00 0.0000e+00 1.0000e+00
        2 -1    0    0  501    0 +0.0000000000e+00 +0.0000000000e+00 -3.3007942616e+02 3.3007942616e+02 0.0000000000e+00 0.0000e+00 -1.0000e+00
       24  2    1    2    0    0 +0.0000000000e+00 +0.0000000000e+00 -3.2592490190e+02 3.3423395043e+02 7.4062756797e+01 0.0000e+00 0.0000e+00
      -11  1    3    3    0    0 +2.8317331141e+00 +1.4232332589e+01 -9.2110448848e+00 1.7187825669e+01 0.0000000000e+00 0.0000e+00 1.0000e+00
       12  1    3    3    0    0 -2.8317331141e+00 -1.4232332589e+01 -3.1671385701e+02 3.1704612476e+02 0.0000000000e+00 0.0000e+00 -1.0000e+00
#aMCatNLO 1  0  0  2  1 0.13503975E+02 0.00000000E+00 -9  5  0 0.00000000E+00 0.00000000E+00 0.00000000E+00 0.00000000E+00 0.00000000E+00
<rwgt>
<wgt id='1001'> +7.4519530e+04 </wgt>
<wgt id='1002'> +7.1662789e+04 </wgt>
<wgt id='1003'> +7.8088581e+04 </wgt>
<wgt id='1004'> +9.3949350e+04 </wgt>
<wgt id='1005'> +8.9748187e+04 </wgt>
<wgt id='1006'> +9.9198579e+04 </wgt>
<wgt id='1007'> +5.7552626e+04 </wgt>
<wgt id='1008'> +5.5762967e+04 </wgt>
<wgt id='1009'> +5.9788152e+04 </wgt>
<wgt id='1010'> +7.4519530e+04 </wgt>
<wgt id='1011'> +7.4540803e+04 </wgt>
<wgt id='1012'> +7.4648165e+04 </wgt>
<wgt id='1013'> +7.4094516e+04 </wgt>
<wgt id='1014'> +7.4657491e+04 </wgt>
<wgt id='1015'> +7.4186799e+04 </wgt>
<wgt id='1016'> +7.4457770e+04 </wgt>
<wgt id='1017'> +7.4563403e+04 </wgt>
<wgt id='1018'> +7.4298152e+04 </wgt>
<wgt id='1019'> +7.4538879e+04 </wgt>
<wgt id='1020'> +7.4229826e+04 </wgt>
<wgt id='1021'> +7.4454832e+04 </wgt>
<wgt id='1022'> +7.4566771e+04 </wgt>
<wgt id='1023'> +7.4620987e+04 </wgt>
<wgt id='1024'> +7.4479570e+04 </wgt>
<wgt id='1025'> +7.4893991e+04 </wgt>
<wgt id='1026'> +7.4282709e+04 </wgt>
<wgt id='1027'> +7.4438875e+04 </wgt>
<wgt id='1028'> +7.4323826e+04 </wgt>
<wgt id='1029'> +7.4681450e+04 </wgt>
<wgt id='1030'> +7.5103066e+04 </wgt>
<wgt id='1031'> +7.4617827e+04 </wgt>
<wgt id='1032'> +7.4702210e+04 </wgt>
<wgt id='1033'> +7.4256243e+04 </wgt>
<wgt id='1034'> +7.4439784e+04 </wgt>
<wgt id='1035'> +7.4277260e+04 </wgt>
<wgt id='1036'> +7.4293351e+04 </wgt>
<wgt id='1037'> +7.5149894e+04 </wgt>
<wgt id='1038'> +7.4589253e+04 </wgt>
<wgt id='1039'> +7.4590040e+04 </wgt>
<wgt id='1040'> +7.4436822e+04 </wgt>
<wgt id='1041'> +7.4794486e+04 </wgt>
<wgt id='1042'> +7.4526983e+04 </wgt>
<wgt id='1043'> +7.4586043e+04 </wgt>
<wgt id='1044'> +7.4544049e+04 </wgt>
<wgt id='1045'> +7.4685869e+04 </wgt>
<wgt id='1046'> +7.4533642e+04 </wgt>
<wgt id='1047'> +7.4385660e+04 </wgt>
<wgt id='1048'> +7.4720442e+04 </wgt>
<wgt id='1049'> +7.4646107e+04 </wgt>
<wgt id='1050'> +7.4670007e+04 </wgt>
<wgt id='1051'> +7.4793270e+04 </wgt>
<wgt id='1052'> +7.4591137e+04 </wgt>
<wgt id='1053'> +7.4318794e+04 </wgt>
<wgt id='1054'> +7.4502949e+04 </wgt>
<wgt id='1055'> +7.4557321e+04 </wgt>
<wgt id='1056'> +7.4607170e+04 </wgt>
<wgt id='1057'> +7.4390951e+04 </wgt>
<wgt id='1058'> +7.4607396e+04 </wgt>
<wgt id='1059'> +7.4492094e+04 </wgt>
<wgt id='1060'> +7.4450236e+04 </wgt>
<wgt id='1061'> +7.4568894e+04 </wgt>
<wgt id='1062'> +7.4730958e+04 </wgt>
<wgt id='1063'> +7.4551449e+04 </wgt>
<wgt id='1064'> +7.4461291e+04 </wgt>
<wgt id='1065'> +7.4480243e+04 </wgt>
<wgt id='1066'> +7.4721777e+04 </wgt>
<wgt id='1067'> +7.4470996e+04 </wgt>
<wgt id='1068'> +7.4557860e+04 </wgt>
<wgt id='1069'> +7.4408821e+04 </wgt>
<wgt id='1070'> +7.4487468e+04 </wgt>
<wgt id='1071'> +7.4558651e+04 </wgt>
<wgt id='1072'> +7.4363575e+04 </wgt>
<wgt id='1073'> +7.4577258e+04 </wgt>
<wgt id='1074'> +7.4527730e+04 </wgt>
<wgt id='1075'> +7.4529932e+04 </wgt>
<wgt id='1076'> +7.4644493e+04 </wgt>
<wgt id='1077'> +7.4474436e+04 </wgt>
<wgt id='1078'> +7.4554951e+04 </wgt>
<wgt id='1079'> +7.4605328e+04 </wgt>
<wgt id='1080'> +7.4477038e+04 </wgt>
<wgt id='1081'> +7.4454586e+04 </wgt>
<wgt id='1082'> +7.4606758e+04 </wgt>
<wgt id='1083'> +7.4555137e+04 </wgt>
<wgt id='1084'> +7.4618020e+04 </wgt>
<wgt id='1085'> +7.4450534e+04 </wgt>
<wgt id='1086'> +7.4482545e+04 </wgt>
<wgt id='1087'> +7.4509146e+04 </wgt>
<wgt id='1088'> +7.4541472e+04 </wgt>
<wgt id='1089'> +7.4491852e+04 </wgt>
<wgt id='1090'> +7.4622622e+04 </wgt>
<wgt id='1091'> +7.4501931e+04 </wgt>
<wgt id='1092'> +7.4443566e+04 </wgt>
<wgt id='1093'> +7.4587993e+04 </wgt>
<wgt id='1094'> +7.4571953e+04 </wgt>
<wgt id='1095'> +7.4526553e+04 </wgt>
<wgt id='1096'> +7.4513163e+04 </wgt>
<wgt id='1097'> +7.4629972e+04 </wgt>
<wgt id='1098'> +7.4474292e+04 </wgt>
<wgt id='1099'> +7.4579316e+04 </wgt>
<wgt id='1100'> +7.4510741e+04 </wgt>
<wgt id='1101'> +7.4543571e+04 </wgt>
<wgt id='1102'> +7.4529790e+04 </wgt>
<wgt id='1103'> +7.4527762e+04 </wgt>
<wgt id='1104'> +7.4497487e+04 </wgt>
<wgt id='1105'> +7.4505343e+04 </wgt>
<wgt id='1106'> +7.4522885e+04 </wgt>
<wgt id='1107'> +7.4473188e+04 </wgt>
<wgt id='1108'> +7.4523107e+04 </wgt>
<wgt id='1109'> +7.4504602e+04 </wgt>
<wgt id='1110'> +7.4519530e+04 </wgt>
<wgt id='1111'> +7.3276357e+04 </wgt>
<wgt id='1112'> +7.5699204e+04 </wgt>
<wgt id='1113'> +7.4519530e+04 </wgt>
<wgt id='1114'> +7.6509198e+04 </wgt>
<wgt id='1115'> +7.4848174e+04 </wgt>
<wgt id='1116'> +7.0044102e+04 </wgt>
<wgt id='1117'> +7.3197642e+04 </wgt>
<wgt id='1118'> +7.3589039e+04 </wgt>
<wgt id='1119'> +7.6082860e+04 </wgt>
<wgt id='1120'> +7.6378923e+04 </wgt>
<wgt id='1121'> +7.2597727e+04 </wgt>
<wgt id='1122'> +7.3035835e+04 </wgt>
<wgt id='1123'> +7.4835917e+04 </wgt>
<wgt id='1124'> +7.4254970e+04 </wgt>
<wgt id='1125'> +7.2833112e+04 </wgt>
<wgt id='1126'> +7.4588066e+04 </wgt>
<wgt id='1127'> +7.4445224e+04 </wgt>
<wgt id='1128'> +7.5132900e+04 </wgt>
<wgt id='1129'> +7.5775678e+04 </wgt>
<wgt id='1130'> +7.6050601e+04 </wgt>
<wgt id='1131'> +7.4058305e+04 </wgt>
<wgt id='1132'> +7.6972746e+04 </wgt>
<wgt id='1133'> +7.3093715e+04 </wgt>
<wgt id='1134'> +7.4319402e+04 </wgt>
<wgt id='1135'> +7.5926433e+04 </wgt>
<wgt id='1136'> +7.5734027e+04 </wgt>
<wgt id='1137'> +7.4189385e+04 </wgt>
<wgt id='1138'> +7.3846223e+04 </wgt>
<wgt id='1139'> +7.4671612e+04 </wgt>
<wgt id='1140'> +7.7750246e+04 </wgt>
<wgt id='1141'> +7.4598200e+04 </wgt>
<wgt id='1142'> +7.6846941e+04 </wgt>
<wgt id='1143'> +7.5514312e+04 </wgt>
<wgt id='1144'> +7.2991675e+04 </wgt>
<wgt id='1145'> +7.2870469e+04 </wgt>
<wgt id='1146'> +7.5022177e+04 </wgt>
<wgt id='1147'> +7.3261720e+04 </wgt>
<wgt id='1148'> +7.4810510e+04 </wgt>
<wgt id='1149'> +7.4064465e+04 </wgt>
<wgt id='1150'> +7.3979844e+04 </wgt>
<wgt id='1151'> +7.3921276e+04 </wgt>
<wgt id='1152'> +7.5449156e+04 </wgt>
<wgt id='1153'> +7.4663137e+04 </wgt>
<wgt id='1154'> +7.4180051e+04 </wgt>
<wgt id='1155'> +7.6369908e+04 </wgt>
<wgt id='1156'> +7.5025260e+04 </wgt>
<wgt id='1157'> +7.5074388e+04 </wgt>
<wgt id='1158'> +7.3887116e+04 </wgt>
<wgt id='1159'> +7.6446567e+04 </wgt>
<wgt id='1160'> +7.5292367e+04 </wgt>
<wgt id='1161'> +7.3063466e+04 </wgt>
<wgt id='1162'> +7.7121371e+04 </wgt>
<wgt id='1163'> +7.5719851e+04 </wgt>
<wgt id='1164'> +7.3389918e+04 </wgt>
<wgt id='1165'> +7.4355634e+04 </wgt>
<wgt id='1166'> +7.5766011e+04 </wgt>
<wgt id='1167'> +7.6240554e+04 </wgt>
<wgt id='1168'> +7.2897245e+04 </wgt>
<wgt id='1169'> +7.4184450e+04 </wgt>
<wgt id='1170'> +7.6211490e+04 </wgt>
<wgt id='1171'> +7.4457391e+04 </wgt>
<wgt id='1172'> +7.4833779e+04 </wgt>
<wgt id='1173'> +7.3677613e+04 </wgt>
<wgt id='1174'> +7.5914577e+04 </wgt>
<wgt id='1175'> +7.5177151e+04 </wgt>
<wgt id='1176'> +7.5678735e+04 </wgt>
<wgt id='1177'> +7.1400825e+04 </wgt>
<wgt id='1178'> +7.5248855e+04 </wgt>
<wgt id='1179'> +7.2419764e+04 </wgt>
<wgt id='1180'> +7.5015547e+04 </wgt>
<wgt id='1181'> +7.6590039e+04 </wgt>
<wgt id='1182'> +7.6088473e+04 </wgt>
<wgt id='1183'> +7.5721196e+04 </wgt>
<wgt id='1184'> +7.3480319e+04 </wgt>
<wgt id='1185'> +7.7945223e+04 </wgt>
<wgt id='1186'> +6.9533585e+04 </wgt>
<wgt id='1187'> +7.2438825e+04 </wgt>
<wgt id='1188'> +7.3546984e+04 </wgt>
<wgt id='1189'> +7.5031744e+04 </wgt>
<wgt id='1190'> +7.3954731e+04 </wgt>
<wgt id='1191'> +7.5019129e+04 </wgt>
<wgt id='1192'> +7.3699530e+04 </wgt>
<wgt id='1193'> +7.5012942e+04 </wgt>
<wgt id='1194'> +7.4405658e+04 </wgt>
<wgt id='1195'> +7.5775678e+04 </wgt>
<wgt id='1196'> +7.4565671e+04 </wgt>
<wgt id='1197'> +7.3584743e+04 </wgt>
<wgt id='1198'> +7.3765713e+04 </wgt>
<wgt id='1199'> +7.7987584e+04 </wgt>
<wgt id='1200'> +7.3142039e+04 </wgt>
<wgt id='1201'> +7.5498384e+04 </wgt>
<wgt id='1202'> +7.0910130e+04 </wgt>
<wgt id='1203'> +7.3150324e+04 </wgt>
<wgt id='1204'> +7.4874226e+04 </wgt>
<wgt id='1205'> +7.3093626e+04 </wgt>
<wgt id='1206'> +7.3953527e+04 </wgt>
<wgt id='1207'> +7.5775203e+04 </wgt>
<wgt id='1208'> +7.3514597e+04 </wgt>
<wgt id='1209'> +7.4484326e+04 </wgt>
<wgt id='1210'> +7.3436439e+04 </wgt>
<wgt id='1211'> +7.3379808e+04 </wgt>
<wgt id='1212'> +7.2379119e+04 </wgt>
<wgt id='1213'> +7.4293448e+04 </wgt>
<wgt id='1214'> +7.4493700e+04 </wgt>
<wgt id='1215'> +6.9297805e+04 </wgt>
<wgt id='1216'> +7.0170553e+04 </wgt>
<wgt id='1217'> +7.1049326e+04 </wgt>
<wgt id='1218'> +7.2234922e+04 </wgt>
<wgt id='1219'> +7.4272643e+04 </wgt>
<wgt id='1220'> +7.5066768e+04 </wgt>
<wgt id='1221'> +7.7125647e+04 </wgt>
<wgt id='1222'> +7.7991591e+04 </wgt>
<wgt id='1223'> +7.3010695e+04 </wgt>
<wgt id='1224'> +7.2974718e+04 </wgt>
<wgt id='1225'> +7.3286278e+04 </wgt>
<wgt id='1226'> +7.2789709e+04 </wgt>
<wgt id='1227'> +7.3415600e+04 </wgt>
<wgt id='1228'> +7.2995814e+04 </wgt>
<wgt id='1229'> +7.2649451e+04 </wgt>
<wgt id='1230'> +7.3144957e+04 </wgt>
<wgt id='1231'> +7.3278883e+04 </wgt>
<wgt id='1232'> +7.3163702e+04 </wgt>
<wgt id='1233'> +7.2654383e+04 </wgt>
<wgt id='1234'> +7.2907100e+04 </wgt>
<wgt id='1235'> +7.3137238e+04 </wgt>
<wgt id='1236'> +7.3321336e+04 </wgt>
<wgt id='1237'> +7.2977110e+04 </wgt>
<wgt id='1238'> +7.2857095e+04 </wgt>
<wgt id='1239'> +7.3467182e+04 </wgt>
<wgt id='1240'> +7.2844804e+04 </wgt>
<wgt id='1241'> +7.3236247e+04 </wgt>
<wgt id='1242'> +7.3068869e+04 </wgt>
<wgt id='1243'> +7.2878922e+04 </wgt>
<wgt id='1244'> +7.3293240e+04 </wgt>
<wgt id='1245'> +7.2973980e+04 </wgt>
<wgt id='1246'> +7.2796698e+04 </wgt>
<wgt id='1247'> +7.3476297e+04 </wgt>
<wgt id='1248'> +7.2804670e+04 </wgt>
<wgt id='1249'> +7.3033337e+04 </wgt>
<wgt id='1250'> +7.2988774e+04 </wgt>
<wgt id='1251'> +7.2965348e+04 </wgt>
<wgt id='1252'> +7.3593310e+04 </wgt>
<wgt id='1253'> +7.3049902e+04 </wgt>
<wgt id='1254'> +7.2620318e+04 </wgt>
<wgt id='1255'> +7.3156304e+04 </wgt>
<wgt id='1256'> +7.2919607e+04 </wgt>
<wgt id='1257'> +7.3054661e+04 </wgt>
<wgt id='1258'> +7.3029701e+04 </wgt>
<wgt id='1259'> +7.3073358e+04 </wgt>
<wgt id='1260'> +7.2914587e+04 </wgt>
<wgt id='1261'> +7.2999903e+04 </wgt>
<wgt id='1262'> +7.2960481e+04 </wgt>
<wgt id='1263'> +7.3017477e+04 </wgt>
<wgt id='1264'> +7.2909566e+04 </wgt>
<wgt id='1265'> +7.3059566e+04 </wgt>
<wgt id='1266'> +7.2977997e+04 </wgt>
<wgt id='1267'> +7.2989904e+04 </wgt>
<wgt id='1268'> +7.3049028e+04 </wgt>
<wgt id='1269'> +7.2925737e+04 </wgt>
<wgt id='1270'> +7.2919430e+04 </wgt>
<wgt id='1271'> +7.3154842e+04 </wgt>
<wgt id='1272'> +7.3197659e+04 </wgt>
<wgt id='1273'> +7.2947984e+04 </wgt>
<wgt id='1274'> +7.2932466e+04 </wgt>
<wgt id='1275'> +7.3015138e+04 </wgt>
<wgt id='1276'> +7.2913496e+04 </wgt>
<wgt id='1277'> +7.3053604e+04 </wgt>
<wgt id='1278'> +7.3093876e+04 </wgt>
<wgt id='1279'> +7.3072511e+04 </wgt>
<wgt id='1280'> +7.2910868e+04 </wgt>
<wgt id='1281'> +7.2827723e+04 </wgt>
<wgt id='1282'> +7.2975066e+04 </wgt>
<wgt id='1283'> +7.3121130e+04 </wgt>
<wgt id='1284'> +7.3055141e+04 </wgt>
<wgt id='1285'> +7.2989192e+04 </wgt>
<wgt id='1286'> +7.3089079e+04 </wgt>
<wgt id='1287'> +7.3055254e+04 </wgt>
<wgt id='1288'> +7.3079264e+04 </wgt>
<wgt id='1289'> +7.2925224e+04 </wgt>
<wgt id='1290'> +7.2956188e+04 </wgt>
<wgt id='1291'> +7.3027382e+04 </wgt>
<wgt id='1292'> +7.2922728e+04 </wgt>
<wgt id='1293'> +7.3104900e+04 </wgt>
<wgt id='1294'> +7.3108761e+04 </wgt>
<wgt id='1295'> +7.3140838e+04 </wgt>
<wgt id='1296'> +7.3002750e+04 </wgt>
<wgt id='1297'> +7.2996315e+04 </wgt>
<wgt id='1298'> +7.2904258e+04 </wgt>
<wgt id='1299'> +7.2941053e+04 </wgt>
<wgt id='1300'> +7.3106397e+04 </wgt>
<wgt id='1301'> +7.3009949e+04 </wgt>
<wgt id='1302'> +7.2969481e+04 </wgt>
<wgt id='1303'> +7.3036522e+04 </wgt>
<wgt id='1304'> +7.3087694e+04 </wgt>
<wgt id='1305'> +7.3067196e+04 </wgt>
<wgt id='1306'> +7.3118644e+04 </wgt>
<wgt id='1307'> +7.2985100e+04 </wgt>
<wgt id='1308'> +7.3045532e+04 </wgt>
<wgt id='1309'> +7.2987563e+04 </wgt>
<wgt id='1310'> +7.2992359e+04 </wgt>
<wgt id='1311'> +7.2989607e+04 </wgt>
<wgt id='1312'> +7.2969949e+04 </wgt>
<wgt id='1313'> +7.3010021e+04 </wgt>
<wgt id='1314'> +7.2987480e+04 </wgt>
<wgt id='1315'> +7.2982682e+04 </wgt>
<wgt id='1316'> +7.3065055e+04 </wgt>
<wgt id='1317'> +7.3059870e+04 </wgt>
<wgt id='1318'> +7.3034430e+04 </wgt>
<wgt id='1319'> +7.3018003e+04 </wgt>
<wgt id='1320'> +7.3049175e+04 </wgt>
<wgt id='1321'> +7.2978676e+04 </wgt>
<wgt id='1322'> +7.3102619e+04 </wgt>
<wgt id='1323'> +7.2946818e+04 </wgt>
<wgt id='1324'> +7.1812081e+04 </wgt>
<wgt id='1325'> +7.4295296e+04 </wgt>
<wgt id='1326'> +7.1633960e+04 </wgt>
<wgt id='1327'> +6.8317561e+04 </wgt>
<wgt id='1328'> +7.4476290e+04 </wgt>
<wgt id='1329'> +7.3650310e+04 </wgt>
<wgt id='1330'> +7.4806616e+04 </wgt>
<wgt id='1331'> +7.5537661e+04 </wgt>
<wgt id='1332'> +7.4199124e+04 </wgt>
<wgt id='1333'> +7.4342774e+04 </wgt>
<wgt id='1334'> +7.2570790e+04 </wgt>
<wgt id='1335'> +7.4456706e+04 </wgt>
<wgt id='1336'> +7.5184223e+04 </wgt>
<wgt id='1337'> +7.4049015e+04 </wgt>
<wgt id='1338'> +7.5579981e+04 </wgt>
<wgt id='1339'> +7.4896331e+04 </wgt>
<wgt id='1340'> +7.3191407e+04 </wgt>
<wgt id='1341'> +7.3671061e+04 </wgt>
<wgt id='1342'> +7.5009869e+04 </wgt>
<wgt id='1343'> +7.5428254e+04 </wgt>
<wgt id='1344'> +7.4271254e+04 </wgt>
<wgt id='1345'> +7.5715056e+04 </wgt>
<wgt id='1346'> +7.4803639e+04 </wgt>
<wgt id='1347'> +7.5067964e+04 </wgt>
<wgt id='1348'> +7.2955239e+04 </wgt>
<wgt id='1349'> +7.5403108e+04 </wgt>
<wgt id='1350'> +7.3814508e+04 </wgt>
<wgt id='1351'> +7.4254675e+04 </wgt>
<wgt id='1352'> +7.5875900e+04 </wgt>
<wgt id='1353'> +7.5669973e+04 </wgt>
<wgt id='1354'> +7.4890646e+04 </wgt>
<wgt id='1355'> +7.4939928e+04 </wgt>
<wgt id='1356'> +7.4026514e+04 </wgt>
<wgt id='1357'> +7.4231978e+04 </wgt>
<wgt id='1358'> +7.4079762e+04 </wgt>
<wgt id='1359'> +7.4448661e+04 </wgt>
<wgt id='1360'> +7.4759980e+04 </wgt>
<wgt id='1361'> +7.5711845e+04 </wgt>
<wgt id='1362'> +7.6041324e+04 </wgt>
<wgt id='1363'> +7.5636384e+04 </wgt>
<wgt id='1364'> +7.4983410e+04 </wgt>
<wgt id='1365'> +7.4638095e+04 </wgt>
<wgt id='1366'> +7.4475484e+04 </wgt>
<wgt id='1367'> +7.5413159e+04 </wgt>
<wgt id='1368'> +7.4517629e+04 </wgt>
<wgt id='1369'> +7.2494932e+04 </wgt>
<wgt id='1370'> +7.4190424e+04 </wgt>
<wgt id='1371'> +7.4647888e+04 </wgt>
<wgt id='1372'> +7.5612787e+04 </wgt>
<wgt id='1373'> +7.3761100e+04 </wgt>
<wgt id='1374'> +7.5020073e+04 </wgt>
<wgt id='1375'> +7.4437344e+04 </wgt>
<wgt id='1376'> +7.4938033e+04 </wgt>
<wgt id='1377'> +7.4261261e+04 </wgt>
<wgt id='1378'> +7.3182045e+04 </wgt>
<wgt id='1379'> +7.4946147e+04 </wgt>
<wgt id='1380'> +7.4325233e+04 </wgt>
<wgt id='1381'> +7.4730190e+04 </wgt>
<wgt id='1382'> +7.3635972e+04 </wgt>
<wgt id='1383'> +7.5079205e+04 </wgt>
<wgt id='1384'> +7.4942927e+04 </wgt>
<wgt id='1385'> +7.4171218e+04 </wgt>
<wgt id='1386'> +7.4762099e+04 </wgt>
<wgt id='1387'> +7.2806562e+04 </wgt>
<wgt id='1388'> +7.5070828e+04 </wgt>
<wgt id='1389'> +7.4245405e+04 </wgt>
<wgt id='1390'> +7.2986485e+04 </wgt>
<wgt id='1391'> +7.3861435e+04 </wgt>
<wgt id='1392'> +7.4088306e+04 </wgt>
<wgt id='1393'> +7.2763201e+04 </wgt>
<wgt id='1394'> +7.4638095e+04 </wgt>
<wgt id='1395'> +7.5304682e+04 </wgt>
<wgt id='1396'> +7.2687075e+04 </wgt>
<wgt id='1397'> +7.5025109e+04 </wgt>
<wgt id='1398'> +7.5069046e+04 </wgt>
<wgt id='1399'> +7.4889491e+04 </wgt>
<wgt id='1400'> +7.5303385e+04 </wgt>
<wgt id='1401'> +7.5103339e+04 </wgt>
<wgt id='1402'> +7.4533245e+04 </wgt>
<wgt id='1403'> +7.4394468e+04 </wgt>
<wgt id='1404'> +7.5197648e+04 </wgt>
<wgt id='1405'> +7.3263496e+04 </wgt>
<wgt id='1406'> +7.3034807e+04 </wgt>
<wgt id='1407'> +7.5000135e+04 </wgt>
<wgt id='1408'> +7.4239807e+04 </wgt>
<wgt id='1409'> +7.2954035e+04 </wgt>
<wgt id='1410'> +7.5053231e+04 </wgt>
<wgt id='1411'> +7.5742617e+04 </wgt>
<wgt id='1412'> +7.5085831e+04 </wgt>
<wgt id='1413'> +7.5889250e+04 </wgt>
<wgt id='1414'> +7.3576807e+04 </wgt>
<wgt id='1415'> +7.3126259e+04 </wgt>
<wgt id='1416'> +7.4316029e+04 </wgt>
<wgt id='1417'> +7.3910944e+04 </wgt>
<wgt id='1418'> +7.5179208e+04 </wgt>
<wgt id='1419'> +7.4327490e+04 </wgt>
<wgt id='1420'> +7.4087745e+04 </wgt>
<wgt id='1421'> +7.4368001e+04 </wgt>
<wgt id='1422'> +7.4587139e+04 </wgt>
<wgt id='1423'> +7.5322854e+04 </wgt>
<wgt id='1424'> +7.2534551e+04 </wgt>
<wgt id='1425'> +7.3522396e+04 </wgt>
<wgt id='1426'> +7.4077942e+04 </wgt>
<wgt id='1427'> +7.5245403e+04 </wgt>
<wgt id='1428'> +7.4787522e+04 </wgt>
<wgt id='1429'> +7.4045745e+04 </wgt>
<wgt id='1430'> +7.4890747e+04 </wgt>
<wgt id='1431'> +7.4465024e+04 </wgt>
<wgt id='1432'> +7.4762543e+04 </wgt>
<wgt id='1433'> +7.4543942e+04 </wgt>
<wgt id='1434'> +7.4376569e+04 </wgt>
<wgt id='1435'> +7.4295372e+04 </wgt>
<wgt id='1436'> +7.4317152e+04 </wgt>
<wgt id='1437'> +7.4771191e+04 </wgt>
<wgt id='1438'> +7.4620013e+04 </wgt>
<wgt id='1439'> +7.4208019e+04 </wgt>
<wgt id='1440'> +7.4449123e+04 </wgt>
<wgt id='1441'> +7.4318487e+04 </wgt>
<wgt id='1442'> +7.4675012e+04 </wgt>
<wgt id='1443'> +7.4318222e+04 </wgt>
<wgt id='1444'> +7.4215193e+04 </wgt>
<wgt id='1445'> +7.4616841e+04 </wgt>
<wgt id='1446'> +7.4342816e+04 </wgt>
<wgt id='1447'> +7.4242544e+04 </wgt>
<wgt id='1448'> +7.4635004e+04 </wgt>
<wgt id='1449'> +7.4467220e+04 </wgt>
<wgt id='1450'> +7.4391169e+04 </wgt>
<wgt id='1451'> +7.4284242e+04 </wgt>
<wgt id='1452'> +7.4353907e+04 </wgt>
<wgt id='1453'> +7.4435732e+04 </wgt>
<wgt id='1454'> +7.4357062e+04 </wgt>
<wgt id='1455'> +7.4555531e+04 </wgt>
<wgt id='1456'> +7.4472347e+04 </wgt>
<wgt id='1457'> +7.4499364e+04 </wgt>
<wgt id='1458'> +7.4292525e+04 </wgt>
<wgt id='1459'> +7.4279323e+04 </wgt>
<wgt id='1460'> +7.4481806e+04 </wgt>
<wgt id='1461'> +7.4425152e+04 </wgt>
<wgt id='1462'> +7.4447506e+04 </wgt>
<wgt id='1463'> +7.4476018e+04 </wgt>
<wgt id='1464'> +7.4368668e+04 </wgt>
<wgt id='1465'> +7.4489719e+04 </wgt>
<wgt id='1466'> +7.4464535e+04 </wgt>
<wgt id='1467'> +7.4549249e+04 </wgt>
<wgt id='1468'> +7.4483154e+04 </wgt>
<wgt id='1469'> +7.4468674e+04 </wgt>
<wgt id='1470'> +7.4469140e+04 </wgt>
<wgt id='1471'> +7.4458274e+04 </wgt>
<wgt id='1472'> +7.4448601e+04 </wgt>
<wgt id='1473'> +7.4501015e+04 </wgt>
<wgt id='1474'> +7.4513705e+04 </wgt>
<wgt id='1475'> +7.4434333e+04 </wgt>
<wgt id='1476'> +7.4441371e+04 </wgt>
<wgt id='1477'> +7.4466237e+04 </wgt>
<wgt id='1478'> +7.4436130e+04 </wgt>
<wgt id='1479'> +7.4517850e+04 </wgt>
<wgt id='1480'> +7.4469369e+04 </wgt>
<wgt id='1481'> +7.4478555e+04 </wgt>
<wgt id='1482'> +7.4045745e+04 </wgt>
<wgt id='1483'> +7.4890747e+04 </wgt>
<wgt id='1484'> +7.5162297e+04 </wgt>
<wgt id='1485'> +7.5492585e+04 </wgt>
<wgt id='1486'> +7.5385133e+04 </wgt>
<wgt id='1487'> +7.4856120e+04 </wgt>
<wgt id='1488'> +7.5132891e+04 </wgt>
<wgt id='1489'> +7.5636230e+04 </wgt>
<wgt id='1490'> +7.3679240e+04 </wgt>
<wgt id='1491'> +7.5003672e+04 </wgt>
<wgt id='1492'> +7.3781409e+04 </wgt>
<wgt id='1493'> +7.5587199e+04 </wgt>
<wgt id='1494'> +7.4387901e+04 </wgt>
<wgt id='1495'> +7.4539400e+04 </wgt>
<wgt id='1496'> +7.4723333e+04 </wgt>
<wgt id='1497'> +7.4099916e+04 </wgt>
<wgt id='1498'> +7.6132025e+04 </wgt>
<wgt id='1499'> +7.5662656e+04 </wgt>
<wgt id='1500'> +7.3419273e+04 </wgt>
<wgt id='1501'> +7.4627922e+04 </wgt>
<wgt id='1502'> +7.6223743e+04 </wgt>
<wgt id='1503'> +7.4155651e+04 </wgt>
<wgt id='1504'> +7.4964360e+04 </wgt>
<wgt id='1505'> +7.4740155e+04 </wgt>
<wgt id='1506'> +7.5257787e+04 </wgt>
<wgt id='1507'> +7.4494879e+04 </wgt>
<wgt id='1508'> +7.3845764e+04 </wgt>
<wgt id='1509'> +7.4659258e+04 </wgt>
<wgt id='1510'> +7.5560881e+04 </wgt>
<wgt id='1511'> +7.5146417e+04 </wgt>
<wgt id='1512'> +7.5122607e+04 </wgt>
<wgt id='1513'> +7.4927369e+04 </wgt>
<wgt id='1514'> +7.5637276e+04 </wgt>
<wgt id='1515'> +7.5061939e+04 </wgt>
<wgt id='1516'> +7.3378484e+04 </wgt>
<wgt id='1517'> +7.5595881e+04 </wgt>
<wgt id='1518'> +7.5882931e+04 </wgt>
<wgt id='1519'> +7.4971344e+04 </wgt>
<wgt id='1520'> +7.4317954e+04 </wgt>
<wgt id='1521'> +7.4043317e+04 </wgt>
<wgt id='1522'> +7.5547200e+04 </wgt>
<wgt id='1523'> +7.5388807e+04 </wgt>
<wgt id='1524'> +7.5480618e+04 </wgt>
<wgt id='1525'> +7.5912331e+04 </wgt>
<wgt id='1526'> +7.5398677e+04 </wgt>
<wgt id='1527'> +7.5641417e+04 </wgt>
<wgt id='1528'> +7.5509625e+04 </wgt>
<wgt id='1529'> +7.5598991e+04 </wgt>
<wgt id='1530'> +7.4783027e+04 </wgt>
<wgt id='1531'> +7.4589118e+04 </wgt>
<wgt id='1532'> +7.3496465e+04 </wgt>
<wgt id='1533'> +7.4897427e+04 </wgt>
<wgt id='1534'> +7.5076924e+04 </wgt>
<wgt id='1535'> +7.4151105e+04 </wgt>
<wgt id='1536'> +7.6392243e+04 </wgt>
<wgt id='1537'> +7.5050522e+04 </wgt>
<wgt id='1538'> +7.7140510e+04 </wgt>
<wgt id='1539'> +7.5510941e+04 </wgt>
<wgt id='1540'> +7.5181213e+04 </wgt>
<wgt id='1541'> +7.5402199e+04 </wgt>
<wgt id='1542'> +7.6343323e+04 </wgt>
<wgt id='1543'> +7.5367457e+04 </wgt>
<wgt id='1544'> +7.6315827e+04 </wgt>
<wgt id='1545'> +7.5036730e+04 </wgt>
<wgt id='1546'> +7.5381750e+04 </wgt>
<wgt id='1547'> +7.5829157e+04 </wgt>
<wgt id='1548'> +7.4628960e+04 </wgt>
<wgt id='1549'> +7.5389862e+04 </wgt>
<wgt id='1550'> +7.4926963e+04 </wgt>
<wgt id='1551'> +7.6386528e+04 </wgt>
<wgt id='1552'> +7.4937533e+04 </wgt>
<wgt id='1553'> +7.6212827e+04 </wgt>
<wgt id='1554'> +7.3070430e+04 </wgt>
<wgt id='1555'> +7.6014582e+04 </wgt>
<wgt id='1556'> +7.5910163e+04 </wgt>
<wgt id='1557'> +7.4447381e+04 </wgt>
<wgt id='1558'> +7.5954843e+04 </wgt>
<wgt id='1559'> +7.6045522e+04 </wgt>
<wgt id='1560'> +7.5588558e+04 </wgt>
<wgt id='1561'> +7.5947719e+04 </wgt>
<wgt id='1562'> +7.5150500e+04 </wgt>
<wgt id='1563'> +7.6573792e+04 </wgt>
<wgt id='1564'> +7.4330888e+04 </wgt>
<wgt id='1565'> +7.3946704e+04 </wgt>
<wgt id='1566'> +7.5227780e+04 </wgt>
<wgt id='1567'> +7.7072603e+04 </wgt>
<wgt id='1568'> +7.5491359e+04 </wgt>
<wgt id='1569'> +7.6440036e+04 </wgt>
<wgt id='1570'> +7.6549927e+04 </wgt>
<wgt id='1571'> +7.6359223e+04 </wgt>
<wgt id='1572'> +7.4450211e+04 </wgt>
<wgt id='1573'> +7.6352001e+04 </wgt>
<wgt id='1574'> +7.3795909e+04 </wgt>
<wgt id='1575'> +7.4258374e+04 </wgt>
<wgt id='1576'> +7.5992323e+04 </wgt>
<wgt id='1577'> +7.4137741e+04 </wgt>
<wgt id='1578'> +7.4868883e+04 </wgt>
<wgt id='1579'> +7.5515872e+04 </wgt>
<wgt id='1580'> +7.5659032e+04 </wgt>
<wgt id='1581'> +7.5854201e+04 </wgt>
<wgt id='1582'> +7.5650529e+04 </wgt>
<wgt id='1583'> +7.3082281e+04 </wgt>
<wgt id='1584'> +7.3404057e+04 </wgt>
<wgt id='1585'> +7.2628171e+04 </wgt>
<wgt id='1586'> +6.5854727e+04 </wgt>
<wgt id='1587'> +7.3330500e+04 </wgt>
<wgt id='1588'> +7.4045745e+04 </wgt>
<wgt id='1589'> +7.4096009e+04 </wgt>
<wgt id='1590'> +7.4513228e+04 </wgt>
<wgt id='1591'> +7.4890747e+04 </wgt>
<wgt id='1592'> +7.5203821e+04 </wgt>
<wgt id='1593'> +7.3740227e+04 </wgt>
<wgt id='1594'> +7.3760260e+04 </wgt>
<wgt id='1595'> +7.3520728e+04 </wgt>
<wgt id='1596'> +7.3094255e+04 </wgt>
<wgt id='1597'> +7.4532137e+04 </wgt>
<wgt id='1598'> +7.3347926e+04 </wgt>
<wgt id='1599'> +7.3977792e+04 </wgt>
<wgt id='1600'> +7.1980300e+04 </wgt>
<wgt id='1601'> +7.5337486e+04 </wgt>
<wgt id='1602'> +7.2982629e+04 </wgt>
<wgt id='1603'> +7.4534622e+04 </wgt>
<wgt id='1604'> +7.3753968e+04 </wgt>
<wgt id='1605'> +7.4143706e+04 </wgt>
<wgt id='1606'> +7.2863718e+04 </wgt>
<wgt id='1607'> +7.3927171e+04 </wgt>
<wgt id='1608'> +7.2577379e+04 </wgt>
<wgt id='1609'> +7.4054911e+04 </wgt>
<wgt id='1610'> +7.3424272e+04 </wgt>
<wgt id='1611'> +7.3692751e+04 </wgt>
<wgt id='1612'> +7.4612064e+04 </wgt>
<wgt id='1613'> +7.1662429e+04 </wgt>
<wgt id='1614'> +7.3446131e+04 </wgt>
<wgt id='1615'> +7.4207145e+04 </wgt>
<wgt id='1616'> +7.2813984e+04 </wgt>
<wgt id='1617'> +7.4244460e+04 </wgt>
<wgt id='1618'> +7.3955444e+04 </wgt>
<wgt id='1619'> +7.3282244e+04 </wgt>
<wgt id='1620'> +7.3616281e+04 </wgt>
<wgt id='1621'> +7.3697643e+04 </wgt>
<wgt id='1622'> +7.3702631e+04 </wgt>
<wgt id='1623'> +7.3226678e+04 </wgt>
<wgt id='1624'> +7.3942709e+04 </wgt>
<wgt id='1625'> +7.2451192e+04 </wgt>
<wgt id='1626'> +7.2419164e+04 </wgt>
<wgt id='1627'> +7.4855670e+04 </wgt>
<wgt id='1628'> +7.4465913e+04 </wgt>
<wgt id='1629'> +7.3349448e+04 </wgt>
<wgt id='1630'> +7.4272681e+04 </wgt>
<wgt id='1631'> +7.2668177e+04 </wgt>
<wgt id='1632'> +7.2825848e+04 </wgt>
<wgt id='1633'> +7.4265690e+04 </wgt>
<wgt id='1634'> +7.4695376e+04 </wgt>
<wgt id='1635'> +7.2786027e+04 </wgt>
<wgt id='1636'> +7.3462303e+04 </wgt>
<wgt id='1637'> +7.4288170e+04 </wgt>
<wgt id='1638'> +7.3114846e+04 </wgt>
<wgt id='1639'> +7.3934891e+04 </wgt>
<wgt id='1640'> +7.5648135e+04 </wgt>
<wgt id='1641'> +7.2179438e+04 </wgt>
<wgt id='1642'> +7.3454663e+04 </wgt>
<wgt id='1643'> +7.3632420e+04 </wgt>
<wgt id='1644'> +7.4278850e+04 </wgt>
<wgt id='1645'> +7.2416491e+04 </wgt>
<wgt id='1646'> +7.3456393e+04 </wgt>
<wgt id='1647'> +7.4361532e+04 </wgt>
<wgt id='1648'> +7.3942559e+04 </wgt>
<wgt id='1649'> +7.3757319e+04 </wgt>
<wgt id='1650'> +7.4515644e+04 </wgt>
<wgt id='1651'> +7.2696113e+04 </wgt>
<wgt id='1652'> +7.3176360e+04 </wgt>
<wgt id='1653'> +7.3449558e+04 </wgt>
<wgt id='1654'> +7.4048078e+04 </wgt>
<wgt id='1655'> +7.4379487e+04 </wgt>
<wgt id='1656'> +7.5568588e+04 </wgt>
<wgt id='1657'> +7.5536961e+04 </wgt>
<wgt id='1658'> +7.5423317e+04 </wgt>
<wgt id='1659'> +7.5790710e+04 </wgt>
<wgt id='1660'> +7.5549674e+04 </wgt>
<wgt id='1661'> +7.6304084e+04 </wgt>
<wgt id='1662'> +7.4436758e+04 </wgt>
<wgt id='1663'> +7.5066728e+04 </wgt>
<wgt id='1664'> +7.5018546e+04 </wgt>
<wgt id='1665'> +7.4875191e+04 </wgt>
<wgt id='1666'> +7.5496258e+04 </wgt>
<wgt id='1667'> +7.4420554e+04 </wgt>
<wgt id='1668'> +7.6411067e+04 </wgt>
<wgt id='1669'> +7.6193779e+04 </wgt>
<wgt id='1670'> +7.4409440e+04 </wgt>
<wgt id='1671'> +7.5445647e+04 </wgt>
<wgt id='1672'> +7.5975890e+04 </wgt>
<wgt id='1673'> +7.6220448e+04 </wgt>
<wgt id='1674'> +7.5133917e+04 </wgt>
<wgt id='1675'> +7.6406275e+04 </wgt>
<wgt id='1676'> +7.4651343e+04 </wgt>
<wgt id='1677'> +7.4316883e+04 </wgt>
<wgt id='1678'> +7.6673052e+04 </wgt>
<wgt id='1679'> +7.5433394e+04 </wgt>
<wgt id='1680'> +7.6431801e+04 </wgt>
<wgt id='1681'> +7.5393418e+04 </wgt>
<wgt id='1682'> +7.5186338e+04 </wgt>
<wgt id='1683'> +7.5704904e+04 </wgt>
<wgt id='1684'> +7.5406815e+04 </wgt>
<wgt id='1685'> +7.6388485e+04 </wgt>
<wgt id='1686'> +7.4547078e+04 </wgt>
<wgt id='1687'> +7.6009590e+04 </wgt>
<wgt id='1688'> +7.4762815e+04 </wgt>
<wgt id='1689'> +7.5409170e+04 </wgt>
<wgt id='1690'> +7.6027524e+04 </wgt>
<wgt id='1691'> +7.5702861e+04 </wgt>
<wgt id='1692'> +7.5135887e+04 </wgt>
<wgt id='1693'> +7.6620974e+04 </wgt>
<wgt id='1694'> +7.5005719e+04 </wgt>
<wgt id='1695'> +7.5430056e+04 </wgt>
<wgt id='1696'> +7.5449303e+04 </wgt>
<wgt id='1697'> +7.6159089e+04 </wgt>
<wgt id='1698'> +7.5172460e+04 </wgt>
<wgt id='1699'> +7.4349622e+04 </wgt>
<wgt id='1700'> +7.6976301e+04 </wgt>
<wgt id='1701'> +7.5367949e+04 </wgt>
<wgt id='1702'> +7.5927362e+04 </wgt>
<wgt id='1703'> +7.5788488e+04 </wgt>
<wgt id='1704'> +7.5737970e+04 </wgt>
<wgt id='1705'> +7.4916561e+04 </wgt>
<wgt id='1706'> +7.5986580e+04 </wgt>
<wgt id='1707'> +7.4405209e+04 </wgt>
<wgt id='1708'> +7.6403070e+04 </wgt>
<wgt id='1709'> +7.5154866e+04 </wgt>
<wgt id='1710'> +7.6158233e+04 </wgt>
<wgt id='1711'> +7.4596584e+04 </wgt>
<wgt id='1712'> +7.6070924e+04 </wgt>
<wgt id='1713'> +7.5929497e+04 </wgt>
<wgt id='1714'> +7.4991513e+04 </wgt>
<wgt id='1715'> +7.2882904e+04 </wgt>
<wgt id='1716'> +7.5203519e+04 </wgt>
<wgt id='1717'> +7.1085170e+04 </wgt>
<wgt id='1718'> +7.1075832e+04 </wgt>
<wgt id='1719'> +7.1095518e+04 </wgt>
<wgt id='1720'> +7.1040029e+04 </wgt>
<wgt id='1721'> +7.1126421e+04 </wgt>
<wgt id='1722'> +7.1006089e+04 </wgt>
<wgt id='1723'> +7.1214775e+04 </wgt>
<wgt id='1724'> +7.1384855e+04 </wgt>
<wgt id='1725'> +7.0841856e+04 </wgt>
<wgt id='1726'> +7.0968108e+04 </wgt>
<wgt id='1727'> +7.1205661e+04 </wgt>
<wgt id='1728'> +7.0286028e+04 </wgt>
<wgt id='1729'> +7.1862780e+04 </wgt>
<wgt id='1730'> +7.1228986e+04 </wgt>
<wgt id='1731'> +7.0982630e+04 </wgt>
<wgt id='1732'> +7.1510089e+04 </wgt>
<wgt id='1733'> +7.1510089e+04 </wgt>
<wgt id='1734'> +7.0922658e+04 </wgt>
<wgt id='1735'> +7.1191189e+04 </wgt>
<wgt id='1736'> +7.1146897e+04 </wgt>
<wgt id='1737'> +7.1002765e+04 </wgt>
<wgt id='1738'> +7.1436440e+04 </wgt>
<wgt id='1739'> +7.0455668e+04 </wgt>
<wgt id='1740'> +7.0980675e+04 </wgt>
<wgt id='1741'> +7.1333947e+04 </wgt>
<wgt id='1742'> +7.1253753e+04 </wgt>
<wgt id='1743'> +7.0885033e+04 </wgt>
<wgt id='1744'> +7.0926151e+04 </wgt>
<wgt id='1745'> +7.1520794e+04 </wgt>
<wgt id='1746'> +7.0648492e+04 </wgt>
<wgt id='1747'> +7.1308810e+04 </wgt>
<wgt id='1748'> +7.1213345e+04 </wgt>
<wgt id='1749'> +7.0600270e+04 </wgt>
<wgt id='1750'> +7.1054160e+04 </wgt>
<wgt id='1751'> +7.1117427e+04 </wgt>
<wgt id='1752'> +7.1020159e+04 </wgt>
<wgt id='1753'> +7.1163447e+04 </wgt>
<wgt id='1754'> +7.1105670e+04 </wgt>
<wgt id='1755'> +7.1064705e+04 </wgt>
<wgt id='1756'> +7.0732629e+04 </wgt>
<wgt id='1757'> +7.1971913e+04 </wgt>
<wgt id='1758'> +7.1408807e+04 </wgt>
<wgt id='1759'> +7.0614785e+04 </wgt>
<wgt id='1760'> +7.1575208e+04 </wgt>
<wgt id='1761'> +7.0689588e+04 </wgt>
<wgt id='1762'> +7.1099279e+04 </wgt>
<wgt id='1763'> +7.0863245e+04 </wgt>
<wgt id='1764'> +7.0930511e+04 </wgt>
<wgt id='1765'> +7.1813370e+04 </wgt>
<wgt id='1766'> +7.0991332e+04 </wgt>
<wgt id='1767'> +7.1289464e+04 </wgt>
<wgt id='1768'> +7.0933639e+04 </wgt>
<wgt id='1769'> +7.1248558e+04 </wgt>
<wgt id='1770'> +7.0910306e+04 </wgt>
<wgt id='1771'> +7.1311123e+04 </wgt>
<wgt id='1772'> +7.1508621e+04 </wgt>
<wgt id='1773'> +7.0711548e+04 </wgt>
<wgt id='1774'> +7.0831844e+04 </wgt>
<wgt id='1775'> +7.1239738e+04 </wgt>
<wgt id='1776'> +7.1168991e+04 </wgt>
<wgt id='1777'> +7.1067028e+04 </wgt>
<wgt id='1778'> +7.0914723e+04 </wgt>
<wgt id='1779'> +7.1110672e+04 </wgt>
<wgt id='1780'> +7.1565348e+04 </wgt>
<wgt id='1781'> +7.1300596e+04 </wgt>
<wgt id='1782'> +7.1085170e+04 </wgt>
<wgt id='1783'> +7.1062330e+04 </wgt>
<wgt id='1784'> +7.2912021e+04 </wgt>
<wgt id='1785'> +7.3153795e+04 </wgt>
<wgt id='1786'> +7.1693745e+04 </wgt>
<wgt id='1787'> +7.3043882e+04 </wgt>
<wgt id='1788'> +7.2805436e+04 </wgt>
<wgt id='1789'> +7.3002494e+04 </wgt>
<wgt id='1790'> +7.3084011e+04 </wgt>
<wgt id='1791'> +7.3146367e+04 </wgt>
<wgt id='1792'> +7.2400874e+04 </wgt>
<wgt id='1793'> +7.3259119e+04 </wgt>
<wgt id='1794'> +7.3140017e+04 </wgt>
<wgt id='1795'> +7.2343382e+04 </wgt>
<wgt id='1796'> +7.3019736e+04 </wgt>
<wgt id='1797'> +7.2830659e+04 </wgt>
<wgt id='1798'> +7.3123402e+04 </wgt>
<wgt id='1799'> +7.3590143e+04 </wgt>
<wgt id='1800'> +7.3142984e+04 </wgt>
<wgt id='1801'> +7.3777874e+04 </wgt>
<wgt id='1802'> +7.3978556e+04 </wgt>
<wgt id='1803'> +7.3032001e+04 </wgt>
<wgt id='1804'> +7.2678966e+04 </wgt>
<wgt id='1805'> +7.2986678e+04 </wgt>
<wgt id='1806'> +7.2845394e+04 </wgt>
<wgt id='1807'> +7.2940360e+04 </wgt>
<wgt id='1808'> +7.2934669e+04 </wgt>
<wgt id='1809'> +7.2943343e+04 </wgt>
<wgt id='1810'> +7.2853416e+04 </wgt>
<wgt id='1811'> +7.2812914e+04 </wgt>
<wgt id='1812'> +7.2968921e+04 </wgt>
<wgt id='1813'> +7.2793743e+04 </wgt>
<wgt id='1814'> +7.2962876e+04 </wgt>
<wgt id='1815'> +7.2852505e+04 </wgt>
<wgt id='1816'> +7.2946201e+04 </wgt>
<wgt id='1817'> +7.2696624e+04 </wgt>
<wgt id='1818'> +7.2898992e+04 </wgt>
<wgt id='1819'> +7.2703697e+04 </wgt>
<wgt id='1820'> +7.2891144e+04 </wgt>
<wgt id='1821'> +7.2888792e+04 </wgt>
<wgt id='1822'> +7.2728248e+04 </wgt>
<wgt id='1823'> +7.2878790e+04 </wgt>
<wgt id='1824'> +7.2923607e+04 </wgt>
<wgt id='1825'> +7.2297433e+04 </wgt>
<wgt id='1826'> +7.3786720e+04 </wgt>
<wgt id='1827'> +8.2934337e+04 </wgt>
<wgt id='1828'> +8.3131584e+04 </wgt>
<wgt id='1829'> +8.2768918e+04 </wgt>
<wgt id='1830'> +8.2977568e+04 </wgt>
<wgt id='1831'> +8.2921557e+04 </wgt>
<wgt id='1832'> +8.3047249e+04 </wgt>
<wgt id='1833'> +8.2851736e+04 </wgt>
<wgt id='1834'> +8.2517234e+04 </wgt>
<wgt id='1835'> +8.3363383e+04 </wgt>
<wgt id='1836'> +8.3209820e+04 </wgt>
<wgt id='1837'> +8.2676246e+04 </wgt>
<wgt id='1838'> +8.2934093e+04 </wgt>
<wgt id='1839'> +8.2962740e+04 </wgt>
<wgt id='1840'> +8.2700944e+04 </wgt>
<wgt id='1841'> +8.3206785e+04 </wgt>
<wgt id='1842'> +8.2991890e+04 </wgt>
<wgt id='1843'> +8.3181465e+04 </wgt>
<wgt id='1844'> +8.2892055e+04 </wgt>
<wgt id='1845'> +8.2985302e+04 </wgt>
<wgt id='1846'> +8.3117009e+04 </wgt>
<wgt id='1847'> +8.2770750e+04 </wgt>
<wgt id='1848'> +8.2229645e+04 </wgt>
<wgt id='1849'> +8.3562256e+04 </wgt>
<wgt id='1850'> +8.2991021e+04 </wgt>
<wgt id='1851'> +8.2927869e+04 </wgt>
<wgt id='1852'> +8.2713201e+04 </wgt>
<wgt id='1853'> +8.3010449e+04 </wgt>
<wgt id='1854'> +8.2762084e+04 </wgt>
<wgt id='1855'> +8.3057737e+04 </wgt>
<wgt id='1856'> +7.1795358e+04 </wgt>
<wgt id='1857'> +7.1779114e+04 </wgt>
<wgt id='1858'> +7.1769970e+04 </wgt>
<wgt id='1859'> +7.1836013e+04 </wgt>
<wgt id='1860'> +7.1797276e+04 </wgt>
<wgt id='1861'> +7.1888385e+04 </wgt>
<wgt id='1862'> +7.1491094e+04 </wgt>
<wgt id='1863'> +7.1793529e+04 </wgt>
<wgt id='1864'> +7.1650366e+04 </wgt>
<wgt id='1865'> +7.1630607e+04 </wgt>
<wgt id='1866'> +7.2063147e+04 </wgt>
<wgt id='1867'> +7.1742805e+04 </wgt>
<wgt id='1868'> +7.1742822e+04 </wgt>
<wgt id='1869'> +7.1882688e+04 </wgt>
<wgt id='1870'> +7.1662553e+04 </wgt>
<wgt id='1871'> +7.1887442e+04 </wgt>
<wgt id='1872'> +7.1810936e+04 </wgt>
<wgt id='1873'> +7.1765870e+04 </wgt>
<wgt id='1874'> +7.1876087e+04 </wgt>
<wgt id='1875'> +7.1787688e+04 </wgt>
<wgt id='1876'> +7.1511394e+04 </wgt>
<wgt id='1877'> +7.1706598e+04 </wgt>
<wgt id='1878'> +7.1649550e+04 </wgt>
<wgt id='1879'> +7.1920500e+04 </wgt>
<wgt id='1880'> +7.1959068e+04 </wgt>
<wgt id='1881'> +7.2069269e+04 </wgt>
<wgt id='1882'> +7.1685049e+04 </wgt>
<wgt id='1883'> +7.1826678e+04 </wgt>
<wgt id='1884'> +7.1569923e+04 </wgt>
<wgt id='1885'> +7.1344205e+04 </wgt>
<wgt id='1886'> +7.1738653e+04 </wgt>
<wgt id='1887'> +7.5154036e+04 </wgt>
<wgt id='1888'> +6.3279316e+04 </wgt>
<wgt id='1889'> +7.4319572e+04 </wgt>
</rwgt>
</event>
<event npLO=" -1 " npNLO=" 0 ">
 5      1 +7.4519530e+04 3.00000000e+01 7.55820760e-03 1.19363680e-01
       -2 -1    0    0    0  501 +0.0000000000e+00 +0.0000000000e+00 +6.5795274662e-01 6.5795274662e-01 0.0000000000e+00 0.0000e+00 1.0000e+00
        1 -1    0    0  501    0 +0.0000000000e+00 +0.0000000000e+00 -2.4846888310e+03 2.4846888310e+03 0.0000000000e+00 0.0000e+00 -1.0000e+00
      -24  2    1    2    0    0 +0.0000000000e+00 +0.0000000000e+00 -2.4840308783e+03 2.4853467837e+03 8.0865514055e+01 0.0000e+00 0.0000e+00
       15  1    3    3    0    0 -2.6199716784e+00 -1.1518332374e+01 -2.4304453182e+03 2.4304746735e+03 1.7770000000e+00 0.0000e+00 -1.0000e+00
      -16  1    3    3    0    0 +2.6199716784e+00 +1.1518332374e+01 -5.3585560069e+01 5.4872110221e+01 0.0000000000e+00 0.0000e+00 1.0000e+00
#aMCatNLO 1  0  0  2  1 0.90728549E+02 0.00000000E+00 -9  5  0 0.00000000E+00 0.00000000E+00 0.00000000E+00 0.00000000E+00 0.00000000E+00
<rwgt>
<wgt id='1001'> +7.4519530e+04 </wgt>
<wgt id='1002'> +7.3936161e+04 </wgt>
<wgt id='1003'> +7.5246260e+04 </wgt>
<wgt id='1004'> +7.7766976e+04 </wgt>
<wgt id='1005'> +7.7209358e+04 </wgt>
<wgt id='1006'> +7.8461627e+04 </wgt>
<wgt id='1007'> +7.0256515e+04 </wgt>
<wgt id='1008'> +6.9660965e+04 </wgt>
<wgt id='1009'> +7.0998420e+04 </wgt>
<wgt id='1010'> +7.4519530e+04 </wgt>
<wgt id='1011'> +7.4376466e+04 </wgt>
<wgt id='1012'> +7.4443190e+04 </wgt>
<wgt id='1013'> +7.4404593e+04 </wgt>
<wgt id='1014'> +7.4138712e+04 </wgt>
<wgt id='1015'> +7.4382517e+04 </wgt>
<wgt id='1016'> +7.4772537e+04 </wgt>
<wgt id='1017'> +7.3668954e+04 </wgt>
<wgt id='1018'> +7.4220070e+04 </wgt>
<wgt id='1019'> +7.5344847e+04 </wgt>
<wgt id='1020'> +7.5844930e+04 </wgt>
<wgt id='1021'> +7.4157921e+04 </wgt>
<wgt id='1022'> +7.5182544e+04 </wgt>
<wgt id='1023'> +7.4829768e+04 </wgt>
<wgt id='1024'> +7.3882775e+04 </wgt>
<wgt id='1025'> +7.4226125e+04 </wgt>
<wgt id='1026'> +7.5227656e+04 </wgt>
<wgt id='1027'> +7.4083781e+04 </wgt>
<wgt id='1028'> +7.4550708e+04 </wgt>
<wgt id='1029'> +7.4166800e+04 </wgt>
<wgt id='1030'> +7.3374235e+04 </wgt>
<wgt id='1031'> +7.4681869e+04 </wgt>
<wgt id='1032'> +7.5454313e+04 </wgt>
<wgt id='1033'> +7.4815812e+04 </wgt>
<wgt id='1034'> +7.5567586e+04 </wgt>
<wgt id='1035'> +7.2841306e+04 </wgt>
<wgt id='1036'> +7.4472787e+04 </wgt>
<wgt id='1037'> +7.5163872e+04 </wgt>
<wgt id='1038'> +7.5128724e+04 </wgt>
<wgt id='1039'> +7.5418804e+04 </wgt>
<wgt id='1040'> +7.2936035e+04 </wgt>
<wgt id='1041'> +7.5270223e+04 </wgt>
<wgt id='1042'> +7.4399268e+04 </wgt>
<wgt id='1043'> +7.2372696e+04 </wgt>
<wgt id='1044'> +7.4935607e+04 </wgt>
<wgt id='1045'> +7.4072908e+04 </wgt>
<wgt id='1046'> +7.3856726e+04 </wgt>
<wgt id='1047'> +7.3303909e+04 </wgt>
<wgt id='1048'> +7.3551258e+04 </wgt>
<wgt id='1049'> +7.4684904e+04 </wgt>
<wgt id='1050'> +7.5040863e+04 </wgt>
<wgt id='1051'> +7.3902534e+04 </wgt>
<wgt id='1052'> +7.2946022e+04 </wgt>
<wgt id='1053'> +7.4081208e+04 </wgt>
<wgt id='1054'> +7.4078163e+04 </wgt>
<wgt id='1055'> +7.4571267e+04 </wgt>
<wgt id='1056'> +7.4146643e+04 </wgt>
<wgt id='1057'> +7.4758253e+04 </wgt>
<wgt id='1058'> +7.4884920e+04 </wgt>
<wgt id='1059'> +7.5508587e+04 </wgt>
<wgt id='1060'> +7.4435279e+04 </wgt>
<wgt id='1061'> +7.4768811e+04 </wgt>
<wgt id='1062'> +7.4606094e+04 </wgt>
<wgt id='1063'> +7.4573971e+04 </wgt>
<wgt id='1064'> +7.4794210e+04 </wgt>
<wgt id='1065'> +7.4638189e+04 </wgt>
<wgt id='1066'> +7.5429060e+04 </wgt>
<wgt id='1067'> +7.4060709e+04 </wgt>
<wgt id='1068'> +7.4808702e+04 </wgt>
<wgt id='1069'> +7.4389208e+04 </wgt>
<wgt id='1070'> +7.4898887e+04 </wgt>
<wgt id='1071'> +7.4403561e+04 </wgt>
<wgt id='1072'> +7.4657210e+04 </wgt>
<wgt id='1073'> +7.4104651e+04 </wgt>
<wgt id='1074'> +7.4394922e+04 </wgt>
<wgt id='1075'> +7.4462801e+04 </wgt>
<wgt id='1076'> +7.4523100e+04 </wgt>
<wgt id='1077'> +7.5004296e+04 </wgt>
<wgt id='1078'> +7.4479753e+04 </wgt>
<wgt id='1079'> +7.4363098e+04 </wgt>
<wgt id='1080'> +7.4049100e+04 </wgt>
<wgt id='1081'> +7.4606766e+04 </wgt>
<wgt id='1082'> +7.4436335e+04 </wgt>
<wgt id='1083'> +7.4894755e+04 </wgt>
<wgt id='1084'> +7.4756170e+04 </wgt>
<wgt id='1085'> +7.4262489e+04 </wgt>
<wgt id='1086'> +7.4559189e+04 </wgt>
<wgt id='1087'> +7.4634043e+04 </wgt>
<wgt id='1088'> +7.4522290e+04 </wgt>
<wgt id='1089'> +7.4599934e+04 </wgt>
<wgt id='1090'> +7.4359167e+04 </wgt>
<wgt id='1091'> +7.4304795e+04 </wgt>
<wgt id='1092'> +7.4282940e+04 </wgt>
<wgt id='1093'> +7.4591705e+04 </wgt>
<wgt id='1094'> +7.4537959e+04 </wgt>
<wgt id='1095'> +7.4273428e+04 </wgt>
<wgt id='1096'> +7.4311997e+04 </wgt>
<wgt id='1097'> +7.4566562e+04 </wgt>
<wgt id='1098'> +7.4372726e+04 </wgt>
<wgt id='1099'> +7.4466342e+04 </wgt>
<wgt id='1100'> +7.4575122e+04 </wgt>
<wgt id='1101'> +7.4433516e+04 </wgt>
<wgt id='1102'> +7.4479729e+04 </wgt>
<wgt id='1103'> +7.4473217e+04 </wgt>
<wgt id='1104'> +7.4456756e+04 </wgt>
<wgt id='1105'> +7.4511348e+04 </wgt>
<wgt id='1106'> +7.4549844e+04 </wgt>
<wgt id='1107'> +7.4587039e+04 </wgt>
<wgt id='1108'> +7.4674339e+04 </wgt>
<wgt id='1109'> +7.4543139e+04 </wgt>
<wgt id='1110'> +7.4519530e+04 </wgt>
<wgt id='1111'> +7.4104037e+04 </wgt>
<wgt id='1112'> +7.6171373e+04 </wgt>
<wgt id='1113'> +7.4519530e+04 </wgt>
<wgt id='1114'> +7.7579448e+04 </wgt>
<wgt id='1115'> +7.7561460e+04 </wgt>
<wgt id='1116'> +7.2369251e+04 </wgt>
<wgt id='1117'> +8.3447065e+04 </wgt>
<wgt id='1118'> +7.7243497e+04 </wgt>
<wgt id='1119'> +7.1002759e+04 </wgt>
<wgt id='1120'> +6.8597211e+04 </wgt>
<wgt id='1121'> +7.2078060e+04 </wgt>
<wgt id='1122'> +7.8732082e+04 </wgt>
<wgt id='1123'> +6.8460985e+04 </wgt>
<wgt id='1124'> +7.3835225e+04 </wgt>
<wgt id='1125'> +8.0584392e+04 </wgt>
<wgt id='1126'> +7.1279793e+04 </wgt>
<wgt id='1127'> +7.7296491e+04 </wgt>
<wgt id='1128'> +6.5321736e+04 </wgt>
<wgt id='1129'> +7.1159033e+04 </wgt>
<wgt id='1130'> +7.3801931e+04 </wgt>
<wgt id='1131'> +7.4722835e+04 </wgt>
<wgt id='1132'> +7.8636736e+04 </wgt>
<wgt id='1133'> +6.5655574e+04 </wgt>
<wgt id='1134'> +8.0182285e+04 </wgt>
<wgt id='1135'> +7.8563337e+04 </wgt>
<wgt id='1136'> +8.1568488e+04 </wgt>
<wgt id='1137'> +8.0086753e+04 </wgt>
<wgt id='1138'> +7.6074047e+04 </wgt>
<wgt id='1139'> +7.3288516e+04 </wgt>
<wgt id='1140'> +8.1740176e+04 </wgt>
<wgt id='1141'> +7.4657111e+04 </wgt>
<wgt id='1142'> +7.7944372e+04 </wgt>
<wgt id='1143'> +6.6682115e+04 </wgt>
<wgt id='1144'> +7.5840396e+04 </wgt>
<wgt id='1145'> +7.2632131e+04 </wgt>
<wgt id='1146'> +7.6053747e+04 </wgt>
<wgt id='1147'> +7.4361138e+04 </wgt>
<wgt id='1148'> +6.8732212e+04 </wgt>
<wgt id='1149'> +6.8617709e+04 </wgt>
<wgt id='1150'> +6.8119131e+04 </wgt>
<wgt id='1151'> +7.4891514e+04 </wgt>
<wgt id='1152'> +6.2321076e+04 </wgt>
<wgt id='1153'> +6.8371225e+04 </wgt>
<wgt id='1154'> +8.4660888e+04 </wgt>
<wgt id='1155'> +8.1661009e+04 </wgt>
<wgt id='1156'> +7.9009306e+04 </wgt>
<wgt id='1157'> +7.6088703e+04 </wgt>
<wgt id='1158'> +6.8332696e+04 </wgt>
<wgt id='1159'> +7.4613208e+04 </wgt>
<wgt id='1160'> +7.2579763e+04 </wgt>
<wgt id='1161'> +8.2905235e+04 </wgt>
<wgt id='1162'> +8.4135919e+04 </wgt>
<wgt id='1163'> +6.7675634e+04 </wgt>
<wgt id='1164'> +8.8454895e+04 </wgt>
<wgt id='1165'> +7.2922766e+04 </wgt>
<wgt id='1166'> +7.2007710e+04 </wgt>
<wgt id='1167'> +8.7202147e+04 </wgt>
<wgt id='1168'> +6.9190652e+04 </wgt>
<wgt id='1169'> +7.5968942e+04 </wgt>
<wgt id='1170'> +7.0188142e+04 </wgt>
<wgt id='1171'> +7.2456028e+04 </wgt>
<wgt id='1172'> +7.3503864e+04 </wgt>
<wgt id='1173'> +8.3486177e+04 </wgt>
<wgt id='1174'> +7.4298200e+04 </wgt>
<wgt id='1175'> +7.7723904e+04 </wgt>
<wgt id='1176'> +7.3097751e+04 </wgt>
<wgt id='1177'> +7.8444888e+04 </wgt>
<wgt id='1178'> +8.2136207e+04 </wgt>
<wgt id='1179'> +7.1471100e+04 </wgt>
<wgt id='1180'> +7.9725773e+04 </wgt>
<wgt id='1181'> +7.6293176e+04 </wgt>
<wgt id='1182'> +7.7995375e+04 </wgt>
<wgt id='1183'> +7.1322422e+04 </wgt>
<wgt id='1184'> +7.1155485e+04 </wgt>
<wgt id='1185'> +7.9777488e+04 </wgt>
<wgt id='1186'> +7.6035215e+04 </wgt>
<wgt id='1187'> +7.8997672e+04 </wgt>
<wgt id='1188'> +6.7974231e+04 </wgt>
<wgt id='1189'> +7.5367512e+04 </wgt>
<wgt id='1190'> +6.8789516e+04 </wgt>
<wgt id='1191'> +7.8380852e+04 </wgt>
<wgt id='1192'> +7.4527818e+04 </wgt>
<wgt id='1193'> +6.4216416e+04 </wgt>
<wgt id='1194'> +7.0884299e+04 </wgt>
<wgt id='1195'> +7.1159033e+04 </wgt>
<wgt id='1196'> +7.0495696e+04 </wgt>
<wgt id='1197'> +7.7825660e+04 </wgt>
<wgt id='1198'> +6.9971061e+04 </wgt>
<wgt id='1199'> +6.1169001e+04 </wgt>
<wgt id='1200'> +7.6347731e+04 </wgt>
<wgt id='1201'> +5.7026013e+04 </wgt>
<wgt id='1202'> +7.6916630e+04 </wgt>
<wgt id='1203'> +6.6726195e+04 </wgt>
<wgt id='1204'> +7.1406042e+04 </wgt>
<wgt id='1205'> +7.0650490e+04 </wgt>
<wgt id='1206'> +7.4745058e+04 </wgt>
<wgt id='1207'> +8.3432388e+04 </wgt>
<wgt id='1208'> +7.8958136e+04 </wgt>
<wgt id='1209'> +7.3559271e+04 </wgt>
<wgt id='1210'> +7.6239027e+04 </wgt>
<wgt id='1211'> +7.3334452e+04 </wgt>
<wgt id='1212'> +7.1791433e+04 </wgt>
<wgt id='1213'> +8.2121516e+04 </wgt>
<wgt id='1214'> +7.4447126e+04 </wgt>
<wgt id='1215'> +6.9051532e+04 </wgt>
<wgt id='1216'> +6.9226900e+04 </wgt>
<wgt id='1217'> +6.9970710e+04 </wgt>
<wgt id='1218'> +7.1214230e+04 </wgt>
<wgt id='1219'> +7.3745166e+04 </wgt>
<wgt id='1220'> +7.5246963e+04 </wgt>
<wgt id='1221'> +7.6794859e+04 </wgt>
<wgt id='1222'> +7.7581464e+04 </wgt>
<wgt id='1223'> +6.9058789e+04 </wgt>
<wgt id='1224'> +6.8355609e+04 </wgt>
<wgt id='1225'> +6.9652753e+04 </wgt>
<wgt id='1226'> +6.8854719e+04 </wgt>
<wgt id='1227'> +6.9113286e+04 </wgt>
<wgt id='1228'> +6.9102197e+04 </wgt>
<wgt id='1229'> +6.9453267e+04 </wgt>
<wgt id='1230'> +6.8955572e+04 </wgt>
<wgt id='1231'> +6.8446338e+04 </wgt>
<wgt id='1232'> +6.8899963e+04 </wgt>
<wgt id='1233'> +6.9360541e+04 </wgt>
<wgt id='1234'> +6.8788459e+04 </wgt>
<wgt id='1235'> +6.8836442e+04 </wgt>
<wgt id='1236'> +6.9183215e+04 </wgt>
<wgt id='1237'> +6.9143891e+04 </wgt>
<wgt id='1238'> +6.8571218e+04 </wgt>
<wgt id='1239'> +6.9140071e+04 </wgt>
<wgt id='1240'> +6.8589112e+04 </wgt>
<wgt id='1241'> +6.9156960e+04 </wgt>
<wgt id='1242'> +6.8745312e+04 </wgt>
<wgt id='1243'> +6.8865290e+04 </wgt>
<wgt id='1244'> +6.9669663e+04 </wgt>
<wgt id='1245'> +6.9145324e+04 </wgt>
<wgt id='1246'> +6.9340959e+04 </wgt>
<wgt id='1247'> +6.9446440e+04 </wgt>
<wgt id='1248'> +6.8806785e+04 </wgt>
<wgt id='1249'> +6.8875959e+04 </wgt>
<wgt id='1250'> +6.8857280e+04 </wgt>
<wgt id='1251'> +6.9116229e+04 </wgt>
<wgt id='1252'> +6.9710865e+04 </wgt>
<wgt id='1253'> +6.7896844e+04 </wgt>
<wgt id='1254'> +6.8718433e+04 </wgt>
<wgt id='1255'> +6.9354141e+04 </wgt>
<wgt id='1256'> +6.9266420e+04 </wgt>
<wgt id='1257'> +6.8831982e+04 </wgt>
<wgt id='1258'> +6.9586137e+04 </wgt>
<wgt id='1259'> +6.7577810e+04 </wgt>
<wgt id='1260'> +7.1572972e+04 </wgt>
<wgt id='1261'> +6.7122915e+04 </wgt>
<wgt id='1262'> +6.8687518e+04 </wgt>
<wgt id='1263'> +6.7730854e+04 </wgt>
<wgt id='1264'> +6.9508604e+04 </wgt>
<wgt id='1265'> +6.8931768e+04 </wgt>
<wgt id='1266'> +6.8942859e+04 </wgt>
<wgt id='1267'> +6.9667101e+04 </wgt>
<wgt id='1268'> +6.9553186e+04 </wgt>
<wgt id='1269'> +6.9182627e+04 </wgt>
<wgt id='1270'> +6.9008800e+04 </wgt>
<wgt id='1271'> +6.9010566e+04 </wgt>
<wgt id='1272'> +6.9256889e+04 </wgt>
<wgt id='1273'> +6.8961127e+04 </wgt>
<wgt id='1274'> +6.9121183e+04 </wgt>
<wgt id='1275'> +6.8981715e+04 </wgt>
<wgt id='1276'> +6.9546466e+04 </wgt>
<wgt id='1277'> +6.8889511e+04 </wgt>
<wgt id='1278'> +6.9278390e+04 </wgt>
<wgt id='1279'> +6.9622264e+04 </wgt>
<wgt id='1280'> +6.8948271e+04 </wgt>
<wgt id='1281'> +6.8500451e+04 </wgt>
<wgt id='1282'> +6.9119045e+04 </wgt>
<wgt id='1283'> +6.8215614e+04 </wgt>
<wgt id='1284'> +6.8743913e+04 </wgt>
<wgt id='1285'> +6.9632855e+04 </wgt>
<wgt id='1286'> +6.8506604e+04 </wgt>
<wgt id='1287'> +6.8297972e+04 </wgt>
<wgt id='1288'> +6.9456353e+04 </wgt>
<wgt id='1289'> +6.9615301e+04 </wgt>
<wgt id='1290'> +6.9443951e+04 </wgt>
<wgt id='1291'> +6.9585700e+04 </wgt>
<wgt id='1292'> +6.9082466e+04 </wgt>
<wgt id='1293'> +6.9148177e+04 </wgt>
<wgt id='1294'> +6.8791852e+04 </wgt>
<wgt id='1295'> +6.9138588e+04 </wgt>
<wgt id='1296'> +6.9068495e+04 </wgt>
<wgt id='1297'> +6.9380916e+04 </wgt>
<wgt id='1298'> +6.9522842e+04 </wgt>
<wgt id='1299'> +6.9657443e+04 </wgt>
<wgt id='1300'> +6.9037883e+04 </wgt>
<wgt id='1301'> +6.8828171e+04 </wgt>
<wgt id='1302'> +6.8938970e+04 </wgt>
<wgt id='1303'> +6.9132190e+04 </wgt>
<wgt id='1304'> +6.8930018e+04 </wgt>
<wgt id='1305'> +6.9169534e+04 </wgt>
<wgt id='1306'> +6.9184901e+04 </wgt>
<wgt id='1307'> +6.9359338e+04 </wgt>
<wgt id='1308'> +6.9263171e+04 </wgt>
<wgt id='1309'> +6.8868465e+04 </wgt>
<wgt id='1310'> +6.9341486e+04 </wgt>
<wgt id='1311'> +6.8822747e+04 </wgt>
<wgt id='1312'> +6.9330519e+04 </wgt>
<wgt id='1313'> +6.9352928e+04 </wgt>
<wgt id='1314'> +6.8880981e+04 </wgt>
<wgt id='1315'> +6.8899497e+04 </wgt>
<wgt id='1316'> +6.8914060e+04 </wgt>
<wgt id='1317'> +6.9001209e+04 </wgt>
<wgt id='1318'> +6.9276612e+04 </wgt>
<wgt id='1319'> +6.9207100e+04 </wgt>
<wgt id='1320'> +6.9154824e+04 </wgt>
<wgt id='1321'> +6.9013625e+04 </wgt>
<wgt id='1322'> +6.9472645e+04 </wgt>
<wgt id='1323'> +6.8789697e+04 </wgt>
<wgt id='1324'> +6.9211520e+04 </wgt>
<wgt id='1325'> +7.0737614e+04 </wgt>
<wgt id='1326'> +7.2745845e+04 </wgt>
<wgt id='1327'> +7.2198903e+04 </wgt>
<wgt id='1328'> +7.1260149e+04 </wgt>
<wgt id='1329'> +7.2012092e+04 </wgt>
<wgt id='1330'> +7.0551300e+04 </wgt>
<wgt id='1331'> +7.1151684e+04 </wgt>
<wgt id='1332'> +7.1682846e+04 </wgt>
<wgt id='1333'> +7.6110055e+04 </wgt>
<wgt id='1334'> +7.2259433e+04 </wgt>
<wgt id='1335'> +7.0238860e+04 </wgt>
<wgt id='1336'> +7.6557122e+04 </wgt>
<wgt id='1337'> +7.1974698e+04 </wgt>
<wgt id='1338'> +7.3403872e+04 </wgt>
<wgt id='1339'> +7.4417251e+04 </wgt>
<wgt id='1340'> +6.6335462e+04 </wgt>
<wgt id='1341'> +7.1296608e+04 </wgt>
<wgt id='1342'> +7.2083426e+04 </wgt>
<wgt id='1343'> +7.2823111e+04 </wgt>
<wgt id='1344'> +7.0115371e+04 </wgt>
<wgt id='1345'> +7.5498304e+04 </wgt>
<wgt id='1346'> +7.1930928e+04 </wgt>
<wgt id='1347'> +7.2998942e+04 </wgt>
<wgt id='1348'> +7.0156483e+04 </wgt>
<wgt id='1349'> +7.4055810e+04 </wgt>
<wgt id='1350'> +6.9569120e+04 </wgt>
<wgt id='1351'> +7.2608085e+04 </wgt>
<wgt id='1352'> +6.3235188e+04 </wgt>
<wgt id='1353'> +6.8109031e+04 </wgt>
<wgt id='1354'> +6.6429522e+04 </wgt>
<wgt id='1355'> +7.1846247e+04 </wgt>
<wgt id='1356'> +7.2140288e+04 </wgt>
<wgt id='1357'> +7.1793794e+04 </wgt>
<wgt id='1358'> +6.9248749e+04 </wgt>
<wgt id='1359'> +7.3395608e+04 </wgt>
<wgt id='1360'> +7.0995375e+04 </wgt>
<wgt id='1361'> +7.2926249e+04 </wgt>
<wgt id='1362'> +7.3247033e+04 </wgt>
<wgt id='1363'> +7.1961864e+04 </wgt>
<wgt id='1364'> +7.3807928e+04 </wgt>
<wgt id='1365'> +6.8014469e+04 </wgt>
<wgt id='1366'> +6.9805696e+04 </wgt>
<wgt id='1367'> +7.1711186e+04 </wgt>
<wgt id='1368'> +6.8895142e+04 </wgt>
<wgt id='1369'> +7.2038514e+04 </wgt>
<wgt id='1370'> +6.8032638e+04 </wgt>
<wgt id='1371'> +6.5287751e+04 </wgt>
<wgt id='1372'> +6.8367292e+04 </wgt>
<wgt id='1373'> +7.2106665e+04 </wgt>
<wgt id='1374'> +7.1258686e+04 </wgt>
<wgt id='1375'> +6.8742803e+04 </wgt>
<wgt id='1376'> +7.4554664e+04 </wgt>
<wgt id='1377'> +7.0734891e+04 </wgt>
<wgt id='1378'> +7.0005316e+04 </wgt>
<wgt id='1379'> +7.1043468e+04 </wgt>
<wgt id='1380'> +6.9652401e+04 </wgt>
<wgt id='1381'> +7.4070301e+04 </wgt>
<wgt id='1382'> +7.0739808e+04 </wgt>
<wgt id='1383'> +6.7807868e+04 </wgt>
<wgt id='1384'> +7.1079672e+04 </wgt>
<wgt id='1385'> +6.5712068e+04 </wgt>
<wgt id='1386'> +7.0556409e+04 </wgt>
<wgt id='1387'> +7.2567816e+04 </wgt>
<wgt id='1388'> +7.0285100e+04 </wgt>
<wgt id='1389'> +7.4497484e+04 </wgt>
<wgt id='1390'> +7.1542671e+04 </wgt>
<wgt id='1391'> +7.3512895e+04 </wgt>
<wgt id='1392'> +6.7689327e+04 </wgt>
<wgt id='1393'> +6.9727423e+04 </wgt>
<wgt id='1394'> +6.8014469e+04 </wgt>
<wgt id='1395'> +6.9487619e+04 </wgt>
<wgt id='1396'> +7.3499354e+04 </wgt>
<wgt id='1397'> +6.8899115e+04 </wgt>
<wgt id='1398'> +6.9730309e+04 </wgt>
<wgt id='1399'> +7.5866791e+04 </wgt>
<wgt id='1400'> +7.3600910e+04 </wgt>
<wgt id='1401'> +7.5506847e+04 </wgt>
<wgt id='1402'> +7.1180434e+04 </wgt>
<wgt id='1403'> +6.9715332e+04 </wgt>
<wgt id='1404'> +6.8967078e+04 </wgt>
<wgt id='1405'> +7.2867118e+04 </wgt>
<wgt id='1406'> +7.2358277e+04 </wgt>
<wgt id='1407'> +7.4974014e+04 </wgt>
<wgt id='1408'> +7.4526492e+04 </wgt>
<wgt id='1409'> +7.2621288e+04 </wgt>
<wgt id='1410'> +6.8771073e+04 </wgt>
<wgt id='1411'> +7.3465294e+04 </wgt>
<wgt id='1412'> +7.4367724e+04 </wgt>
<wgt id='1413'> +7.0919117e+04 </wgt>
<wgt id='1414'> +7.2478806e+04 </wgt>
<wgt id='1415'> +7.2193677e+04 </wgt>
<wgt id='1416'> +7.6042241e+04 </wgt>
<wgt id='1417'> +6.4470702e+04 </wgt>
<wgt id='1418'> +6.4795641e+04 </wgt>
<wgt id='1419'> +6.7091868e+04 </wgt>
<wgt id='1420'> +7.1947940e+04 </wgt>
<wgt id='1421'> +7.2318527e+04 </wgt>
<wgt id='1422'> +7.0578299e+04 </wgt>
<wgt id='1423'> +7.2932578e+04 </wgt>
<wgt id='1424'> +7.2372524e+04 </wgt>
<wgt id='1425'> +6.9390757e+04 </wgt>
<wgt id='1426'> +7.0305252e+04 </wgt>
<wgt id='1427'> +7.4414847e+04 </wgt>
<wgt id='1428'> +7.5563158e+04 </wgt>
<wgt id='1429'> +7.1829550e+04 </wgt>
<wgt id='1430'> +7.1230128e+04 </wgt>
<wgt id='1431'> +7.1154164e+04 </wgt>
<wgt id='1432'> +7.1677881e+04 </wgt>
<wgt id='1433'> +7.1098118e+04 </wgt>
<wgt id='1434'> +7.0914622e+04 </wgt>
<wgt id='1435'> +7.1122733e+04 </wgt>
<wgt id='1436'> +7.1015053e+04 </wgt>
<wgt id='1437'> +7.1008035e+04 </wgt>
<wgt id='1438'> +7.1105815e+04 </wgt>
<wgt id='1439'> +7.1074366e+04 </wgt>
<wgt id='1440'> +7.1231646e+04 </wgt>
<wgt id='1441'> +7.1288632e+04 </wgt>
<wgt id='1442'> +7.1046456e+04 </wgt>
<wgt id='1443'> +7.1258367e+04 </wgt>
<wgt id='1444'> +7.0703033e+04 </wgt>
<wgt id='1445'> +7.0753539e+04 </wgt>
<wgt id='1446'> +7.1464121e+04 </wgt>
<wgt id='1447'> +7.1155542e+04 </wgt>
<wgt id='1448'> +7.1222965e+04 </wgt>
<wgt id='1449'> +7.1021878e+04 </wgt>
<wgt id='1450'> +7.0778406e+04 </wgt>
<wgt id='1451'> +7.1493285e+04 </wgt>
<wgt id='1452'> +7.2232720e+04 </wgt>
<wgt id='1453'> +7.1012121e+04 </wgt>
<wgt id='1454'> +7.1131178e+04 </wgt>
<wgt id='1455'> +7.2992621e+04 </wgt>
<wgt id='1456'> +7.1097303e+04 </wgt>
<wgt id='1457'> +7.0475265e+04 </wgt>
<wgt id='1458'> +7.1647563e+04 </wgt>
<wgt id='1459'> +7.0741565e+04 </wgt>
<wgt id='1460'> +7.1031818e+04 </wgt>
<wgt id='1461'> +7.1359655e+04 </wgt>
<wgt id='1462'> +7.1055393e+04 </wgt>
<wgt id='1463'> +7.1187875e+04 </wgt>
<wgt id='1464'> +7.0955307e+04 </wgt>
<wgt id='1465'> +7.0860395e+04 </wgt>
<wgt id='1466'> +7.1231769e+04 </wgt>
<wgt id='1467'> +7.0950187e+04 </wgt>
<wgt id='1468'> +7.0411265e+04 </wgt>
<wgt id='1469'> +7.0924893e+04 </wgt>
<wgt id='1470'> +7.1538104e+04 </wgt>
<wgt id='1471'> +7.1370510e+04 </wgt>
<wgt id='1472'> +7.1078383e+04 </wgt>
<wgt id='1473'> +7.1103373e+04 </wgt>
<wgt id='1474'> +7.1500919e+04 </wgt>
<wgt id='1475'> +7.1138465e+04 </wgt>
<wgt id='1476'> +7.1170991e+04 </wgt>
<wgt id='1477'> +7.1087695e+04 </wgt>
<wgt id='1478'> +7.1220165e+04 </wgt>
<wgt id='1479'> +7.0982187e+04 </wgt>
<wgt id='1480'> +7.1078006e+04 </wgt>
<wgt id='1481'> +7.1041155e+04 </wgt>
<wgt id='1482'> +7.1829550e+04 </wgt>
<wgt id='1483'> +7.1230128e+04 </wgt>
<wgt id='1484'> +7.5321961e+04 </wgt>
<wgt id='1485'> +7.4132414e+04 </wgt>
<wgt id='1486'> +7.0400408e+04 </wgt>
<wgt id='1487'> +7.3397126e+04 </wgt>
<wgt id='1488'> +7.7665661e+04 </wgt>
<wgt id='1489'> +7.4339572e+04 </wgt>
<wgt id='1490'> +7.1087736e+04 </wgt>
<wgt id='1491'> +7.6657982e+04 </wgt>
<wgt id='1492'> +7.0792279e+04 </wgt>
<wgt id='1493'> +7.4560340e+04 </wgt>
<wgt id='1494'> +7.5664827e+04 </wgt>
<wgt id='1495'> +7.3601396e+04 </wgt>
<wgt id='1496'> +7.3382337e+04 </wgt>
<wgt id='1497'> +7.5906597e+04 </wgt>
<wgt id='1498'> +7.8041733e+04 </wgt>
<wgt id='1499'> +7.5951721e+04 </wgt>
<wgt id='1500'> +7.6469581e+04 </wgt>
<wgt id='1501'> +7.4627021e+04 </wgt>
<wgt id='1502'> +7.9266821e+04 </wgt>
<wgt id='1503'> +7.5942563e+04 </wgt>
<wgt id='1504'> +7.9257564e+04 </wgt>
<wgt id='1505'> +7.3530601e+04 </wgt>
<wgt id='1506'> +7.3560311e+04 </wgt>
<wgt id='1507'> +7.6192063e+04 </wgt>
<wgt id='1508'> +6.9427734e+04 </wgt>
<wgt id='1509'> +7.5942203e+04 </wgt>
<wgt id='1510'> +7.5206687e+04 </wgt>
<wgt id='1511'> +7.6180753e+04 </wgt>
<wgt id='1512'> +7.3663680e+04 </wgt>
<wgt id='1513'> +7.7306236e+04 </wgt>
<wgt id='1514'> +7.8503664e+04 </wgt>
<wgt id='1515'> +7.4575258e+04 </wgt>
<wgt id='1516'> +7.8048536e+04 </wgt>
<wgt id='1517'> +7.1663532e+04 </wgt>
<wgt id='1518'> +7.3938088e+04 </wgt>
<wgt id='1519'> +7.1737408e+04 </wgt>
<wgt id='1520'> +7.5601815e+04 </wgt>
<wgt id='1521'> +7.4123377e+04 </wgt>
<wgt id='1522'> +7.5621176e+04 </wgt>
<wgt id='1523'> +8.0865118e+04 </wgt>
<wgt id='1524'> +7.5748113e+04 </wgt>
<wgt id='1525'> +7.7624277e+04 </wgt>
<wgt id='1526'> +7.9082920e+04 </wgt>
<wgt id='1527'> +7.4332216e+04 </wgt>
<wgt id='1528'> +7.6793349e+04 </wgt>
<wgt id='1529'> +7.5673301e+04 </wgt>
<wgt id='1530'> +7.6694851e+04 </wgt>
<wgt id='1531'> +7.1561433e+04 </wgt>
<wgt id='1532'> +7.4781717e+04 </wgt>
<wgt id='1533'> +7.8387896e+04 </wgt>
<wgt id='1534'> +7.2891146e+04 </wgt>
<wgt id='1535'> +7.7823514e+04 </wgt>
<wgt id='1536'> +7.4882015e+04 </wgt>
<wgt id='1537'> +7.6110881e+04 </wgt>
<wgt id='1538'> +7.5800998e+04 </wgt>
<wgt id='1539'> +7.5279217e+04 </wgt>
<wgt id='1540'> +7.5913600e+04 </wgt>
<wgt id='1541'> +7.1180232e+04 </wgt>
<wgt id='1542'> +7.8833796e+04 </wgt>
<wgt id='1543'> +7.3905473e+04 </wgt>
<wgt id='1544'> +7.6664991e+04 </wgt>
<wgt id='1545'> +7.6180671e+04 </wgt>
<wgt id='1546'> +6.7781806e+04 </wgt>
<wgt id='1547'> +7.7405091e+04 </wgt>
<wgt id='1548'> +7.2247930e+04 </wgt>
<wgt id='1549'> +7.2963969e+04 </wgt>
<wgt id='1550'> +7.6675409e+04 </wgt>
<wgt id='1551'> +7.7749657e+04 </wgt>
<wgt id='1552'> +7.8236677e+04 </wgt>
<wgt id='1553'> +7.6794138e+04 </wgt>
<wgt id='1554'> +7.8329500e+04 </wgt>
<wgt id='1555'> +7.5367976e+04 </wgt>
<wgt id='1556'> +7.4694187e+04 </wgt>
<wgt id='1557'> +7.4118063e+04 </wgt>
<wgt id='1558'> +7.7197374e+04 </wgt>
<wgt id='1559'> +7.5245866e+04 </wgt>
<wgt id='1560'> +7.2807384e+04 </wgt>
<wgt id='1561'> +7.6391118e+04 </wgt>
<wgt id='1562'> +7.5285139e+04 </wgt>
<wgt id='1563'> +7.2215727e+04 </wgt>
<wgt id='1564'> +7.9212675e+04 </wgt>
<wgt id='1565'> +6.7202813e+04 </wgt>
<wgt id='1566'> +7.3233084e+04 </wgt>
<wgt id='1567'> +7.5117807e+04 </wgt>
<wgt id='1568'> +7.7111824e+04 </wgt>
<wgt id='1569'> +7.7172080e+04 </wgt>
<wgt id='1570'> +8.1569272e+04 </wgt>
<wgt id='1571'> +7.4084539e+04 </wgt>
<wgt id='1572'> +7.4143823e+04 </wgt>
<wgt id='1573'> +7.5443412e+04 </wgt>
<wgt id='1574'> +7.8584840e+04 </wgt>
<wgt id='1575'> +7.7182688e+04 </wgt>
<wgt id='1576'> +7.8059415e+04 </wgt>
<wgt id='1577'> +7.0078147e+04 </wgt>
<wgt id='1578'> +7.3750507e+04 </wgt>
<wgt id='1579'> +7.6131343e+04 </wgt>
<wgt id='1580'> +7.8060614e+04 </wgt>
<wgt id='1581'> +7.7489554e+04 </wgt>
<wgt id='1582'> +7.2733803e+04 </wgt>
<wgt id='1583'> +7.5567785e+04 </wgt>
<wgt id='1584'> +7.5526120e+04 </wgt>
<wgt id='1585'> +7.3289201e+04 </wgt>
<wgt id='1586'> +5.8552210e+04 </wgt>
<wgt id='1587'> +7.1098390e+04 </wgt>
<wgt id='1588'> +7.1829550e+04 </wgt>
<wgt id='1589'> +7.0762682e+04 </wgt>
<wgt id='1590'> +7.1544901e+04 </wgt>
<wgt id='1591'> +7.1230128e+04 </wgt>
<wgt id='1592'> +7.1679078e+04 </wgt>
<wgt id='1593'> +7.8551116e+04 </wgt>
<wgt id='1594'> +7.8174775e+04 </wgt>
<wgt id='1595'> +7.8267057e+04 </wgt>
<wgt id='1596'> +7.6839192e+04 </wgt>
<wgt id='1597'> +7.8276473e+04 </wgt>
<wgt id='1598'> +7.7930229e+04 </wgt>
<wgt id='1599'> +7.8458897e+04 </wgt>
<wgt id='1600'> +7.7454959e+04 </wgt>
<wgt id='1601'> +7.9248151e+04 </wgt>
<wgt id='1602'> +7.6616223e+04 </wgt>
<wgt id='1603'> +7.9862635e+04 </wgt>
<wgt id='1604'> +7.6276447e+04 </wgt>
<wgt id='1605'> +7.7011846e+04 </wgt>
<wgt id='1606'> +7.8208111e+04 </wgt>
<wgt id='1607'> +8.1339988e+04 </wgt>
<wgt id='1608'> +8.0022135e+04 </wgt>
<wgt id='1609'> +7.7006458e+04 </wgt>
<wgt id='1610'> +7.8863885e+04 </wgt>
<wgt id='1611'> +7.8032185e+04 </wgt>
<wgt id='1612'> +7.8806142e+04 </wgt>
<wgt id='1613'> +7.8436678e+04 </wgt>
<wgt id='1614'> +7.7857412e+04 </wgt>
<wgt id='1615'> +7.9560870e+04 </wgt>
<wgt id='1616'> +7.6897716e+04 </wgt>
<wgt id='1617'> +8.1203791e+04 </wgt>
<wgt id='1618'> +7.8178420e+04 </wgt>
<wgt id='1619'> +7.8892548e+04 </wgt>
<wgt id='1620'> +7.8940308e+04 </wgt>
<wgt id='1621'> +7.8590457e+04 </wgt>
<wgt id='1622'> +7.8375560e+04 </wgt>
<wgt id='1623'> +8.3256531e+04 </wgt>
<wgt id='1624'> +7.7855837e+04 </wgt>
<wgt id='1625'> +7.7594160e+04 </wgt>
<wgt id='1626'> +8.1595709e+04 </wgt>
<wgt id='1627'> +7.6924603e+04 </wgt>
<wgt id='1628'> +7.9197126e+04 </wgt>
<wgt id='1629'> +7.8538662e+04 </wgt>
<wgt id='1630'> +7.8187813e+04 </wgt>
<wgt id='1631'> +7.8380101e+04 </wgt>
<wgt id='1632'> +7.6457261e+04 </wgt>
<wgt id='1633'> +8.0544388e+04 </wgt>
<wgt id='1634'> +7.8060956e+04 </wgt>
<wgt id='1635'> +7.9729259e+04 </wgt>
<wgt id='1636'> +8.1929340e+04 </wgt>
<wgt id='1637'> +7.8422590e+04 </wgt>
<wgt id='1638'> +7.7681319e+04 </wgt>
<wgt id='1639'> +7.8612677e+04 </wgt>
<wgt id='1640'> +7.7706432e+04 </wgt>
<wgt id='1641'> +8.0439192e+04 </wgt>
<wgt id='1642'> +7.9469744e+04 </wgt>
<wgt id='1643'> +7.9547300e+04 </wgt>
<wgt id='1644'> +7.9857523e+04 </wgt>
<wgt id='1645'> +7.7116388e+04 </wgt>
<wgt id='1646'> +7.7289659e+04 </wgt>
<wgt id='1647'> +7.9651224e+04 </wgt>
<wgt id='1648'> +7.8752752e+04 </wgt>
<wgt id='1649'> +7.9982673e+04 </wgt>
<wgt id='1650'> +8.1201570e+04 </wgt>
<wgt id='1651'> +7.6482606e+04 </wgt>
<wgt id='1652'> +7.8404408e+04 </wgt>
<wgt id='1653'> +7.8493898e+04 </wgt>
<wgt id='1654'> +7.8595000e+04 </wgt>
<wgt id='1655'> +7.8646729e+04 </wgt>
<wgt id='1656'> +7.8380650e+04 </wgt>
<wgt id='1657'> +7.9241778e+04 </wgt>
<wgt id='1658'> +7.8477999e+04 </wgt>
<wgt id='1659'> +7.7216896e+04 </wgt>
<wgt id='1660'> +7.7564049e+04 </wgt>
<wgt id='1661'> +7.8741139e+04 </wgt>
<wgt id='1662'> +7.7969815e+04 </wgt>
<wgt id='1663'> +8.0359969e+04 </wgt>
<wgt id='1664'> +8.2925868e+04 </wgt>
<wgt id='1665'> +7.7575157e+04 </wgt>
<wgt id='1666'> +7.9169056e+04 </wgt>
<wgt id='1667'> +8.0198564e+04 </wgt>
<wgt id='1668'> +7.6396430e+04 </wgt>
<wgt id='1669'> +7.8213070e+04 </wgt>
<wgt id='1670'> +7.8827857e+04 </wgt>
<wgt id='1671'> +7.7599021e+04 </wgt>
<wgt id='1672'> +7.5642993e+04 </wgt>
<wgt id='1673'> +7.6464672e+04 </wgt>
<wgt id='1674'> +7.7871025e+04 </wgt>
<wgt id='1675'> +8.0186953e+04 </wgt>
<wgt id='1676'> +7.7318660e+04 </wgt>
<wgt id='1677'> +7.6332636e+04 </wgt>
<wgt id='1678'> +7.6512487e+04 </wgt>
<wgt id='1679'> +7.7364657e+04 </wgt>
<wgt id='1680'> +8.0337101e+04 </wgt>
<wgt id='1681'> +7.9575816e+04 </wgt>
<wgt id='1682'> +7.7309377e+04 </wgt>
<wgt id='1683'> +7.6834958e+04 </wgt>
<wgt id='1684'> +7.9888984e+04 </wgt>
<wgt id='1685'> +7.8658528e+04 </wgt>
<wgt id='1686'> +8.1331453e+04 </wgt>
<wgt id='1687'> +7.7959178e+04 </wgt>
<wgt id='1688'> +7.8606285e+04 </wgt>
<wgt id='1689'> +7.7743220e+04 </wgt>
<wgt id='1690'> +7.8009611e+04 </wgt>
<wgt id='1691'> +7.8814200e+04 </wgt>
<wgt id='1692'> +7.8104078e+04 </wgt>
<wgt id='1693'> +7.8292847e+04 </wgt>
<wgt id='1694'> +7.8535540e+04 </wgt>
<wgt id='1695'> +7.8350402e+04 </wgt>
<wgt id='1696'> +8.0918166e+04 </wgt>
<wgt id='1697'> +7.7953438e+04 </wgt>
<wgt id='1698'> +7.9140208e+04 </wgt>
<wgt id='1699'> +7.8063530e+04 </wgt>
<wgt id='1700'> +7.9124551e+04 </wgt>
<wgt id='1701'> +7.9537411e+04 </wgt>
<wgt id='1702'> +7.7628637e+04 </wgt>
<wgt id='1703'> +8.0643632e+04 </wgt>
<wgt id='1704'> +7.5209785e+04 </wgt>
<wgt id='1705'> +7.7507337e+04 </wgt>
<wgt id='1706'> +7.9933839e+04 </wgt>
<wgt id='1707'> +7.9627524e+04 </wgt>
<wgt id='1708'> +7.6902666e+04 </wgt>
<wgt id='1709'> +7.6514289e+04 </wgt>
<wgt id='1710'> +8.1464667e+04 </wgt>
<wgt id='1711'> +7.5968583e+04 </wgt>
<wgt id='1712'> +8.1359764e+04 </wgt>
<wgt id='1713'> +8.1527478e+04 </wgt>
<wgt id='1714'> +7.5972717e+04 </wgt>
<wgt id='1715'> +7.8787685e+04 </wgt>
<wgt id='1716'> +7.8341380e+04 </wgt>
<wgt id='1717'> +7.7108235e+04 </wgt>
<wgt id='1718'> +7.7301066e+04 </wgt>
<wgt id='1719'> +7.6860978e+04 </wgt>
<wgt id='1720'> +7.7206420e+04 </wgt>
<wgt id='1721'> +7.7018545e+04 </wgt>
<wgt id='1722'> +7.7085301e+04 </wgt>
<wgt id='1723'> +7.7145820e+04 </wgt>
<wgt id='1724'> +7.7405276e+04 </wgt>
<wgt id='1725'> +7.6866660e+04 </wgt>
<wgt id='1726'> +7.6966927e+04 </wgt>
<wgt id='1727'> +7.7254107e+04 </wgt>
<wgt id='1728'> +7.6703135e+04 </wgt>
<wgt id='1729'> +7.7503025e+04 </wgt>
<wgt id='1730'> +7.6336475e+04 </wgt>
<wgt id='1731'> +7.7657148e+04 </wgt>
<wgt id='1732'> +7.7399453e+04 </wgt>
<wgt id='1733'> +7.7399453e+04 </wgt>
<wgt id='1734'> +7.6104805e+04 </wgt>
<wgt id='1735'> +7.7789139e+04 </wgt>
<wgt id='1736'> +7.6838728e+04 </wgt>
<wgt id='1737'> +7.7474803e+04 </wgt>
<wgt id='1738'> +7.7727111e+04 </wgt>
<wgt id='1739'> +7.6055618e+04 </wgt>
<wgt id='1740'> +7.7529814e+04 </wgt>
<wgt id='1741'> +7.6094792e+04 </wgt>
<wgt id='1742'> +7.7185824e+04 </wgt>
<wgt id='1743'> +7.7012706e+04 </wgt>
<wgt id='1744'> +7.7219572e+04 </wgt>
<wgt id='1745'> +7.6807680e+04 </wgt>
<wgt id='1746'> +7.5523348e+04 </wgt>
<wgt id='1747'> +7.7998921e+04 </wgt>
<wgt id='1748'> +7.7562202e+04 </wgt>
<wgt id='1749'> +7.5618830e+04 </wgt>
<wgt id='1750'> +7.6360895e+04 </wgt>
<wgt id='1751'> +7.7917683e+04 </wgt>
<wgt id='1752'> +7.6614591e+04 </wgt>
<wgt id='1753'> +7.7789362e+04 </wgt>
<wgt id='1754'> +7.7241338e+04 </wgt>
<wgt id='1755'> +7.7037497e+04 </wgt>
<wgt id='1756'> +7.7289728e+04 </wgt>
<wgt id='1757'> +7.6631302e+04 </wgt>
<wgt id='1758'> +7.6789203e+04 </wgt>
<wgt id='1759'> +7.7011487e+04 </wgt>
<wgt id='1760'> +7.7765568e+04 </wgt>
<wgt id='1761'> +7.6245411e+04 </wgt>
<wgt id='1762'> +7.6762440e+04 </wgt>
<wgt id='1763'> +7.8628091e+04 </wgt>
<wgt id='1764'> +7.7002830e+04 </wgt>
<wgt id='1765'> +7.7602836e+04 </wgt>
<wgt id='1766'> +7.6893636e+04 </wgt>
<wgt id='1767'> +7.7512622e+04 </wgt>
<wgt id='1768'> +7.6995055e+04 </wgt>
<wgt id='1769'> +7.7253851e+04 </wgt>
<wgt id='1770'> +7.6733652e+04 </wgt>
<wgt id='1771'> +7.7623201e+04 </wgt>
<wgt id='1772'> +7.7036385e+04 </wgt>
<wgt id='1773'> +7.6861187e+04 </wgt>
<wgt id='1774'> +7.6562108e+04 </wgt>
<wgt id='1775'> +7.7420448e+04 </wgt>
<wgt id='1776'> +7.8134866e+04 </wgt>
<wgt id='1777'> +7.6549594e+04 </wgt>
<wgt id='1778'> +7.6895446e+04 </wgt>
<wgt id='1779'> +7.7646525e+04 </wgt>
<wgt id='1780'> +7.7511042e+04 </wgt>
<wgt id='1781'> +7.7188388e+04 </wgt>
<wgt id='1782'> +7.7108235e+04 </wgt>
<wgt id='1783'> +7.7106420e+04 </wgt>
<wgt id='1784'> +7.5688920e+04 </wgt>
<wgt id='1785'> +7.1310386e+04 </wgt>
<wgt id='1786'> +7.5088961e+04 </wgt>
<wgt id='1787'> +7.5112123e+04 </wgt>
<wgt id='1788'> +7.5638209e+04 </wgt>
<wgt id='1789'> +7.5468414e+04 </wgt>
<wgt id='1790'> +7.5614411e+04 </wgt>
<wgt id='1791'> +7.5644802e+04 </wgt>
<wgt id='1792'> +7.5720588e+04 </wgt>
<wgt id='1793'> +7.5781358e+04 </wgt>
<wgt id='1794'> +7.6154360e+04 </wgt>
<wgt id='1795'> +7.5306667e+04 </wgt>
<wgt id='1796'> +7.6049615e+04 </wgt>
<wgt id='1797'> +7.5834382e+04 </wgt>
<wgt id='1798'> +7.5567424e+04 </wgt>
<wgt id='1799'> +7.6423941e+04 </wgt>
<wgt id='1800'> +7.5815516e+04 </wgt>
<wgt id='1801'> +7.5627661e+04 </wgt>
<wgt id='1802'> +7.5609617e+04 </wgt>
<wgt id='1803'> +7.5638159e+04 </wgt>
<wgt id='1804'> +7.4512262e+04 </wgt>
<wgt id='1805'> +7.5537525e+04 </wgt>
<wgt id='1806'> +7.5298596e+04 </wgt>
<wgt id='1807'> +7.5624113e+04 </wgt>
<wgt id='1808'> +7.5943222e+04 </wgt>
<wgt id='1809'> +7.5504880e+04 </wgt>
<wgt id='1810'> +7.5709671e+04 </wgt>
<wgt id='1811'> +7.5361433e+04 </wgt>
<wgt id='1812'> +7.5593596e+04 </wgt>
<wgt id='1813'> +7.5564227e+04 </wgt>
<wgt id='1814'> +7.5670261e+04 </wgt>
<wgt id='1815'> +7.5560839e+04 </wgt>
<wgt id='1816'> +7.5570306e+04 </wgt>
<wgt id='1817'> +7.5683407e+04 </wgt>
<wgt id='1818'> +7.5294131e+04 </wgt>
<wgt id='1819'> +7.6073137e+04 </wgt>
<wgt id='1820'> +7.5572952e+04 </wgt>
<wgt id='1821'> +7.5685764e+04 </wgt>
<wgt id='1822'> +7.5700450e+04 </wgt>
<wgt id='1823'> +7.5599202e+04 </wgt>
<wgt id='1824'> +7.5472843e+04 </wgt>
<wgt id='1825'> +7.5658013e+04 </wgt>
<wgt id='1826'> +7.6200050e+04 </wgt>
<wgt id='1827'> +8.4945768e+04 </wgt>
<wgt id='1828'> +8.5152071e+04 </wgt>
<wgt id='1829'> +8.4904370e+04 </wgt>
<wgt id='1830'> +8.5317359e+04 </wgt>
<wgt id='1831'> +8.4737371e+04 </wgt>
<wgt id='1832'> +8.5050888e+04 </wgt>
<wgt id='1833'> +8.5004929e+04 </wgt>
<wgt id='1834'> +8.4602939e+04 </wgt>
<wgt id='1835'> +8.5429142e+04 </wgt>
<wgt id='1836'> +8.4394837e+04 </wgt>
<wgt id='1837'> +8.5627409e+04 </wgt>
<wgt id='1838'> +8.2133506e+04 </wgt>
<wgt id='1839'> +8.7955827e+04 </wgt>
<wgt id='1840'> +8.5847647e+04 </wgt>
<wgt id='1841'> +8.4232190e+04 </wgt>
<wgt id='1842'> +8.5192910e+04 </wgt>
<wgt id='1843'> +8.5557773e+04 </wgt>
<wgt id='1844'> +8.7553314e+04 </wgt>
<wgt id='1845'> +8.2547588e+04 </wgt>
<wgt id='1846'> +8.7696310e+04 </wgt>
<wgt id='1847'> +8.2340533e+04 </wgt>
<wgt id='1848'> +8.4288136e+04 </wgt>
<wgt id='1849'> +8.5647916e+04 </wgt>
<wgt id='1850'> +8.6306261e+04 </wgt>
<wgt id='1851'> +8.3775401e+04 </wgt>
<wgt id='1852'> +8.6107040e+04 </wgt>
<wgt id='1853'> +8.3931633e+04 </wgt>
<wgt id='1854'> +8.4474471e+04 </wgt>
<wgt id='1855'> +8.5681685e+04 </wgt>
<wgt id='1856'> +7.1480499e+04 </wgt>
<wgt id='1857'> +7.1473658e+04 </wgt>
<wgt id='1858'> +7.1373806e+04 </wgt>
<wgt id='1859'> +7.1470504e+04 </wgt>
<wgt id='1860'> +7.1474705e+04 </wgt>
<wgt id='1861'> +7.1323745e+04 </wgt>
<wgt id='1862'> +7.1311020e+04 </wgt>
<wgt id='1863'> +7.1383508e+04 </wgt>
<wgt id='1864'> +7.1517502e+04 </wgt>
<wgt id='1865'> +7.0936792e+04 </wgt>
<wgt id='1866'> +7.1643735e+04 </wgt>
<wgt id='1867'> +7.1538361e+04 </wgt>
<wgt id='1868'> +7.1857166e+04 </wgt>
<wgt id='1869'> +7.1569273e+04 </wgt>
<wgt id='1870'> +7.1055600e+04 </wgt>
<wgt id='1871'> +7.2168921e+04 </wgt>
<wgt id='1872'> +7.1309361e+04 </wgt>
<wgt id='1873'> +7.1481193e+04 </wgt>
<wgt id='1874'> +7.1209392e+04 </wgt>
<wgt id='1875'> +7.1392446e+04 </wgt>
<wgt id='1876'> +7.2163957e+04 </wgt>
<wgt id='1877'> +7.1423517e+04 </wgt>
<wgt id='1878'> +7.1300932e+04 </wgt>
<wgt id='1879'> +7.2320971e+04 </wgt>
<wgt id='1880'> +7.2001578e+04 </wgt>
<wgt id='1881'> +7.1410916e+04 </wgt>
<wgt id='1882'> +7.1342303e+04 </wgt>
<wgt id='1883'> +7.1730850e+04 </wgt>
<wgt id='1884'> +7.0422612e+04 </wgt>
<wgt id='1885'> +7.0610622e+04 </wgt>
<wgt id='1886'> +6.0669004e+04 </wgt>
<wgt id='1887'> +6.5874465e+04 </wgt>
<wgt id='1888'> +7.2345128e+04 </wgt>
<wgt id='1889'> +8.5407050e+04 </wgt>
</rwgt>
</event>
<event npLO=" -1 " npNLO=" 0 ">
 5      1 +7.4519530e+04 1.74390910e+01 7.55820760e-03 1.20419700e-01
        1 -1    0    0  501    0 +0.0000000000e+00 +0.0000000000e+00 +5.4365787371e+01 5.4365787371e+01 0.0000000000e+00 0.0000e+00 -1.0000e+00
       -2 -1    0    0    0  501 +0.0000000000e+00 +0.0000000000e+00 -2.9209666224e+01 2.9209666224e+01 0.0000000000e+00 0.0000e+00 1.0000e+00
      -24  2    1    2    0    0 +0.0000000000e+00 +0.0000000000e+00 +2.5156121148e+01 8.3575453595e+01 7.9699598571e+01 0.0000e+00 0.0000e+00
       13  1    3    3    0    0 +1.0973793396e+01 -6.5066415304e+00 +5.2166421438e+01 5.3703780604e+01 0.0000000000e+00 0.0000e+00 -1.0000e+00
      -14  1    3    3    0    0 -1.0973793396e+01 +6.5066415304e+00 -2.7010300290e+01 2.9871672991e+01 0.0000000000e+00 0.0000e+00 1.0000e+00
#aMCatNLO 1  0  0  1  2 0.65950739E+01 0.00000000E+00 -9  5  0 0.00000000E+00 0.00000000E+00 0.00000000E+00 0.00000000E+00 0.00000000E+00
<rwgt>
<wgt id='1001'> +7.4519530e+04 </wgt>
<wgt id='1002'> +7.5807791e+04 </wgt>
<wgt id='1003'> +7.2912313e+04 </wgt>
<wgt id='1004'> +7.5938103e+04 </wgt>
<wgt id='1005'> +7.8089330e+04 </wgt>
<wgt id='1006'> +7.3255124e+04 </wgt>
<wgt id='1007'> +7.2975725e+04 </wgt>
<wgt id='1008'> +7.3328973e+04 </wgt>
<wgt id='1009'> +7.2534112e+04 </wgt>
<wgt id='1010'> +7.4519530e+04 </wgt>
<wgt id='1011'> +7.4213183e+04 </wgt>
<wgt id='1012'> +7.4723142e+04 </wgt>
<wgt id='1013'> +7.3531319e+04 </wgt>
<wgt id='1014'> +7.5083165e+04 </wgt>
<wgt id='1015'> +7.3695714e+04 </wgt>
<wgt id='1016'> +7.4410471e+04 </wgt>
<wgt id='1017'> +7.3979270e+04 </wgt>
<wgt id='1018'> +7.3453526e+04 </wgt>
<wgt id='1019'> +7.5310340e+04 </wgt>
<wgt id='1020'> +7.3784333e+04 </wgt>
<wgt id='1021'> +7.4813055e+04 </wgt>
<wgt id='1022'> +7.4855021e+04 </wgt>
<wgt id='1023'> +7.5263521e+04 </wgt>
<wgt id='1024'> +7.5342713e+04 </wgt>
<wgt id='1025'> +7.6040504e+04 </wgt>
<wgt id='1026'> +7.4137576e+04 </wgt>
<wgt id='1027'> +7.4749585e+04 </wgt>
<wgt id='1028'> +7.2895090e+04 </wgt>
<wgt id='1029'> +7.4573542e+04 </wgt>
<wgt id='1030'> +7.5690287e+04 </wgt>
<wgt id='1031'> +7.4467968e+04 </wgt>
<wgt id='1032'> +7.5124587e+04 </wgt>
<wgt id='1033'> +7.3875204e+04 </wgt>
<wgt id='1034'> +7.3961099e+04 </wgt>
<wgt id='1035'> +7.3396939e+04 </wgt>
<wgt id='1036'> +7.4115278e+04 </wgt>
<wgt id='1037'> +7.6506703e+04 </wgt>
<wgt id='1038'> +7.4692355e+04 </wgt>
<wgt id='1039'> +7.4380372e+04 </wgt>
<wgt id='1040'> +7.4702181e+04 </wgt>
<wgt id='1041'> +7.4840345e+04 </wgt>
<wgt id='1042'> +7.3925834e+04 </wgt>
<wgt id='1043'> +7.5166924e+04 </wgt>
<wgt id='1044'> +7.4634777e+04 </wgt>
<wgt id='1045'> +7.4531119e+04 </wgt>
<wgt id='1046'> +7.4801208e+04 </wgt>
<wgt id='1047'> +7.3794580e+04 </wgt>
<wgt id='1048'> +7.5046520e+04 </wgt>
<wgt id='1049'> +7.4811006e+04 </wgt>
<wgt id='1050'> +7.4681420e+04 </wgt>
<wgt id='1051'> +7.4958692e+04 </wgt>
<wgt id='1052'> +7.4836915e+04 </wgt>
<wgt id='1053'> +7.4346832e+04 </wgt>
<wgt id='1054'> +7.4484311e+04 </wgt>
<wgt id='1055'> +7.4543832e+04 </wgt>
<wgt id='1056'> +7.4924467e+04 </wgt>
<wgt id='1057'> +7.4428495e+04 </wgt>
<wgt id='1058'> +7.4498656e+04 </wgt>
<wgt id='1059'> +7.4674615e+04 </wgt>
<wgt id='1060'> +7.4315824e+04 </wgt>
<wgt id='1061'> +7.4683119e+04 </wgt>
<wgt id='1062'> +7.4232233e+04 </wgt>
<wgt id='1063'> +7.4688618e+04 </wgt>
<wgt id='1064'> +7.4284218e+04 </wgt>
<wgt id='1065'> +7.4779102e+04 </wgt>
<wgt id='1066'> +7.4590548e+04 </wgt>
<wgt id='1067'> +7.4384139e+04 </wgt>
<wgt id='1068'> +7.4352085e+04 </wgt>
<wgt id='1069'> +7.4696220e+04 </wgt>
<wgt id='1070'> +7.4316594e+04 </wgt>
<wgt id='1071'> +7.4510213e+04 </wgt>
<wgt id='1072'> +7.4573327e+04 </wgt>
<wgt id='1073'> +7.4676459e+04 </wgt>
<wgt id='1074'> +7.4655001e+04 </wgt>
<wgt id='1075'> +7.4481195e+04 </wgt>
<wgt id='1076'> +7.4623719e+04 </wgt>
<wgt id='1077'> +7.4649781e+04 </wgt>
<wgt id='1078'> +7.4158912e+04 </wgt>
<wgt id='1079'> +7.4559385e+04 </wgt>
<wgt id='1080'> +7.4737997e+04 </wgt>
<wgt id='1081'> +7.4765208e+04 </wgt>
<wgt id='1082'> +7.4563183e+04 </wgt>
<wgt id='1083'> +7.4508397e+04 </wgt>
<wgt id='1084'> +7.4524363e+04 </wgt>
<wgt id='1085'> +7.4505142e+04 </wgt>
<wgt id='1086'> +7.4677194e+04 </wgt>
<wgt id='1087'> +7.4676827e+04 </wgt>
<wgt id='1088'> +7.4572462e+04 </wgt>
<wgt id='1089'> +7.4408623e+04 </wgt>
<wgt id='1090'> +7.4453480e+04 </wgt>
<wgt id='1091'> +7.4538384e+04 </wgt>
<wgt id='1092'> +7.4636753e+04 </wgt>
<wgt id='1093'> +7.4497911e+04 </wgt>
<wgt id='1094'> +7.4522200e+04 </wgt>
<wgt id='1095'> +7.4462746e+04 </wgt>
<wgt id='1096'> +7.4277962e+04 </wgt>
<wgt id='1097'> +7.4513168e+04 </wgt>
<wgt id='1098'> +7.4662717e+04 </wgt>
<wgt id='1099'> +7.4564708e+04 </wgt>
<wgt id='1100'> +7.4449465e+04 </wgt>
<wgt id='1101'> +7.4544492e+04 </wgt>
<wgt id='1102'> +7.4498490e+04 </wgt>
<wgt id='1103'> +7.4655668e+04 </wgt>
<wgt id='1104'> +7.4509478e+04 </wgt>
<wgt id='1105'> +7.4515562e+04 </wgt>
<wgt id='1106'> +7.4540822e+04 </wgt>
<wgt id='1107'> +7.4455991e+04 </wgt>
<wgt id='1108'> +7.4457709e+04 </wgt>
<wgt id='1109'> +7.4533727e+04 </wgt>
<wgt id='1110'> +7.4519524e+04 </wgt>
<wgt id='1111'> +7.2793593e+04 </wgt>
<wgt id='1112'> +7.6955351e+04 </wgt>
<wgt id='1113'> +7.4519524e+04 </wgt>
<wgt id='1114'> +8.6323323e+04 </wgt>
<wgt id='1115'> +7.5273472e+04 </wgt>
<wgt id='1116'> +6.6747442e+04 </wgt>
<wgt id='1117'> +7.0729798e+04 </wgt>
<wgt id='1118'> +7.6076859e+04 </wgt>
<wgt id='1119'> +8.3030126e+04 </wgt>
<wgt id='1120'> +7.7527142e+04 </wgt>
<wgt id='1121'> +6.6068447e+04 </wgt>
<wgt id='1122'> +6.9101725e+04 </wgt>
<wgt id='1123'> +7.6112121e+04 </wgt>
<wgt id='1124'> +7.3531976e+04 </wgt>
<wgt id='1125'> +7.2558937e+04 </wgt>
<wgt id='1126'> +7.3723723e+04 </wgt>
<wgt id='1127'> +7.3201890e+04 </wgt>
<wgt id='1128'> +7.2709221e+04 </wgt>
<wgt id='1129'> +7.5339518e+04 </wgt>
<wgt id='1130'> +7.8765164e+04 </wgt>
<wgt id='1131'> +7.5135693e+04 </wgt>
<wgt id='1132'> +7.4776820e+04 </wgt>
<wgt id='1133'> +6.7480677e+04 </wgt>
<wgt id='1134'> +7.1314497e+04 </wgt>
<wgt id='1135'> +7.5540469e+04 </wgt>
<wgt id='1136'> +7.9379353e+04 </wgt>
<wgt id='1137'> +7.1371132e+04 </wgt>
<wgt id='1138'> +7.0218171e+04 </wgt>
<wgt id='1139'> +7.1483997e+04 </wgt>
<wgt id='1140'> +8.1371048e+04 </wgt>
<wgt id='1141'> +7.6524156e+04 </wgt>
<wgt id='1142'> +7.3694876e+04 </wgt>
<wgt id='1143'> +7.9386947e+04 </wgt>
<wgt id='1144'> +7.7406196e+04 </wgt>
<wgt id='1145'> +7.4729919e+04 </wgt>
<wgt id='1146'> +7.9106546e+04 </wgt>
<wgt id='1147'> +6.9665496e+04 </wgt>
<wgt id='1148'> +7.3749663e+04 </wgt>
<wgt id='1149'> +6.9925060e+04 </wgt>
<wgt id='1150'> +7.2305897e+04 </wgt>
<wgt id='1151'> +7.2828404e+04 </wgt>
<wgt id='1152'> +7.7813803e+04 </wgt>
<wgt id='1153'> +7.3493245e+04 </wgt>
<wgt id='1154'> +7.3942863e+04 </wgt>
<wgt id='1155'> +7.9298288e+04 </wgt>
<wgt id='1156'> +8.0732275e+04 </wgt>
<wgt id='1157'> +8.1689621e+04 </wgt>
<wgt id='1158'> +7.4076895e+04 </wgt>
<wgt id='1159'> +7.5790582e+04 </wgt>
<wgt id='1160'> +7.8119954e+04 </wgt>
<wgt id='1161'> +7.2011496e+04 </wgt>
<wgt id='1162'> +8.0159805e+04 </wgt>
<wgt id='1163'> +8.0438771e+04 </wgt>
<wgt id='1164'> +7.4118483e+04 </wgt>
<wgt id='1165'> +7.3110937e+04 </wgt>
<wgt id='1166'> +7.5045124e+04 </wgt>
<wgt id='1167'> +7.9491503e+04 </wgt>
<wgt id='1168'> +7.2668625e+04 </wgt>
<wgt id='1169'> +7.6629307e+04 </wgt>
<wgt id='1170'> +7.8608572e+04 </wgt>
<wgt id='1171'> +7.2907592e+04 </wgt>
<wgt id='1172'> +6.9830703e+04 </wgt>
<wgt id='1173'> +7.6699661e+04 </wgt>
<wgt id='1174'> +7.6302796e+04 </wgt>
<wgt id='1175'> +7.4879214e+04 </wgt>
<wgt id='1176'> +7.7196045e+04 </wgt>
<wgt id='1177'> +6.8918266e+04 </wgt>
<wgt id='1178'> +7.6576025e+04 </wgt>
<wgt id='1179'> +7.5907919e+04 </wgt>
<wgt id='1180'> +8.0665229e+04 </wgt>
<wgt id='1181'> +7.8539661e+04 </wgt>
<wgt id='1182'> +7.6226476e+04 </wgt>
<wgt id='1183'> +7.5046554e+04 </wgt>
<wgt id='1184'> +7.1568953e+04 </wgt>
<wgt id='1185'> +8.3409529e+04 </wgt>
<wgt id='1186'> +6.7184226e+04 </wgt>
<wgt id='1187'> +6.7663915e+04 </wgt>
<wgt id='1188'> +7.3571789e+04 </wgt>
<wgt id='1189'> +7.2060211e+04 </wgt>
<wgt id='1190'> +6.9393355e+04 </wgt>
<wgt id='1191'> +7.3660919e+04 </wgt>
<wgt id='1192'> +7.1609469e+04 </wgt>
<wgt id='1193'> +8.2206905e+04 </wgt>
<wgt id='1194'> +7.5047674e+04 </wgt>
<wgt id='1195'> +7.5339518e+04 </wgt>
<wgt id='1196'> +7.7514155e+04 </wgt>
<wgt id='1197'> +7.0595550e+04 </wgt>
<wgt id='1198'> +6.8566767e+04 </wgt>
<wgt id='1199'> +8.7173897e+04 </wgt>
<wgt id='1200'> +7.0322897e+04 </wgt>
<wgt id='1201'> +8.2626702e+04 </wgt>
<wgt id='1202'> +5.8572613e+04 </wgt>
<wgt id='1203'> +7.5876362e+04 </wgt>
<wgt id='1204'> +7.2286588e+04 </wgt>
<wgt id='1205'> +6.6895647e+04 </wgt>
<wgt id='1206'> +6.9932283e+04 </wgt>
<wgt id='1207'> +8.0307974e+04 </wgt>
<wgt id='1208'> +7.1474210e+04 </wgt>
<wgt id='1209'> +7.0911755e+04 </wgt>
<wgt id='1210'> +7.8338971e+04 </wgt>
<wgt id='1211'> +7.2257108e+04 </wgt>
<wgt id='1212'> +6.4393695e+04 </wgt>
<wgt id='1213'> +7.1991560e+04 </wgt>
<wgt id='1214'> +7.4538747e+04 </wgt>
<wgt id='1215'> +6.7718502e+04 </wgt>
<wgt id='1216'> +6.8760569e+04 </wgt>
<wgt id='1217'> +6.9164484e+04 </wgt>
<wgt id='1218'> +7.1077331e+04 </wgt>
<wgt id='1219'> +7.3939626e+04 </wgt>
<wgt id='1220'> +7.5434626e+04 </wgt>
<wgt id='1221'> +7.8669387e+04 </wgt>
<wgt id='1222'> +8.0444401e+04 </wgt>
<wgt id='1223'> +7.0781434e+04 </wgt>
<wgt id='1224'> +7.0248122e+04 </wgt>
<wgt id='1225'> +7.1546290e+04 </wgt>
<wgt id='1226'> +7.0261160e+04 </wgt>
<wgt id='1227'> +7.1735894e+04 </wgt>
<wgt id='1228'> +7.0581516e+04 </wgt>
<wgt id='1229'> +6.9873059e+04 </wgt>
<wgt id='1230'> +7.1031008e+04 </wgt>
<wgt id='1231'> +7.1172638e+04 </wgt>
<wgt id='1232'> +7.1461483e+04 </wgt>
<wgt id='1233'> +6.9570346e+04 </wgt>
<wgt id='1234'> +7.0213970e+04 </wgt>
<wgt id='1235'> +7.0758326e+04 </wgt>
<wgt id='1236'> +7.2025851e+04 </wgt>
<wgt id='1237'> +7.0938217e+04 </wgt>
<wgt id='1238'> +6.9425680e+04 </wgt>
<wgt id='1239'> +7.2192918e+04 </wgt>
<wgt id='1240'> +6.9857771e+04 </wgt>
<wgt id='1241'> +7.1376949e+04 </wgt>
<wgt id='1242'> +7.1079422e+04 </wgt>
<wgt id='1243'> +7.0042349e+04 </wgt>
<wgt id='1244'> +7.2257134e+04 </wgt>
<wgt id='1245'> +7.0858397e+04 </wgt>
<wgt id='1246'> +7.0141798e+04 </wgt>
<wgt id='1247'> +7.2021482e+04 </wgt>
<wgt id='1248'> +7.0191420e+04 </wgt>
<wgt id='1249'> +7.0890917e+04 </wgt>
<wgt id='1250'> +7.0536690e+04 </wgt>
<wgt id='1251'> +7.0521105e+04 </wgt>
<wgt id='1252'> +7.1896615e+04 </wgt>
<wgt id='1253'> +7.1239617e+04 </wgt>
<wgt id='1254'> +7.0342185e+04 </wgt>
<wgt id='1255'> +7.0911419e+04 </wgt>
<wgt id='1256'> +7.0543144e+04 </wgt>
<wgt id='1257'> +7.1109182e+04 </wgt>
<wgt id='1258'> +7.0655242e+04 </wgt>
<wgt id='1259'> +7.0585815e+04 </wgt>
<wgt id='1260'> +7.0595119e+04 </wgt>
<wgt id='1261'> +7.0910404e+04 </wgt>
<wgt id='1262'> +7.0426244e+04 </wgt>
<wgt id='1263'> +7.0592553e+04 </wgt>
<wgt id='1264'> +7.0646646e+04 </wgt>
<wgt id='1265'> +7.0715634e+04 </wgt>
<wgt id='1266'> +7.1043532e+04 </wgt>
<wgt id='1267'> +7.0869049e+04 </wgt>
<wgt id='1268'> +7.1137603e+04 </wgt>
<wgt id='1269'> +7.0746202e+04 </wgt>
<wgt id='1270'> +7.0511348e+04 </wgt>
<wgt id='1271'> +7.0530400e+04 </wgt>
<wgt id='1272'> +7.0562092e+04 </wgt>
<wgt id='1273'> +7.0888013e+04 </wgt>
<wgt id='1274'> +7.0879401e+04 </wgt>
<wgt id='1275'> +7.0512127e+04 </wgt>
<wgt id='1276'> +7.0582422e+04 </wgt>
<wgt id='1277'> +7.0395250e+04 </wgt>
<wgt id='1278'> +7.0729243e+04 </wgt>
<wgt id='1279'> +7.0717789e+04 </wgt>
<wgt id='1280'> +7.0863295e+04 </wgt>
<wgt id='1281'> +7.0631342e+04 </wgt>
<wgt id='1282'> +7.0609862e+04 </wgt>
<wgt id='1283'> +7.1060094e+04 </wgt>
<wgt id='1284'> +7.0988008e+04 </wgt>
<wgt id='1285'> +7.0879052e+04 </wgt>
<wgt id='1286'> +7.0628214e+04 </wgt>
<wgt id='1287'> +7.0897561e+04 </wgt>
<wgt id='1288'> +7.1066303e+04 </wgt>
<wgt id='1289'> +7.0631880e+04 </wgt>
<wgt id='1290'> +7.0835894e+04 </wgt>
<wgt id='1291'> +7.0686495e+04 </wgt>
<wgt id='1292'> +7.0604449e+04 </wgt>
<wgt id='1293'> +7.1001189e+04 </wgt>
<wgt id='1294'> +7.0760769e+04 </wgt>
<wgt id='1295'> +7.0398697e+04 </wgt>
<wgt id='1296'> +7.0931231e+04 </wgt>
<wgt id='1297'> +7.0725732e+04 </wgt>
<wgt id='1298'> +7.1170108e+04 </wgt>
<wgt id='1299'> +7.0736003e+04 </wgt>
<wgt id='1300'> +7.0900269e+04 </wgt>
<wgt id='1301'> +7.0760901e+04 </wgt>
<wgt id='1302'> +7.0961647e+04 </wgt>
<wgt id='1303'> +7.0634447e+04 </wgt>
<wgt id='1304'> +7.0769397e+04 </wgt>
<wgt id='1305'> +7.0679024e+04 </wgt>
<wgt id='1306'> +7.0798373e+04 </wgt>
<wgt id='1307'> +7.0806146e+04 </wgt>
<wgt id='1308'> +7.0916449e+04 </wgt>
<wgt id='1309'> +7.0697044e+04 </wgt>
<wgt id='1310'> +7.0942065e+04 </wgt>
<wgt id='1311'> +7.0688963e+04 </wgt>
<wgt id='1312'> +7.0702025e+04 </wgt>
<wgt id='1313'> +7.0698137e+04 </wgt>
<wgt id='1314'> +7.0958285e+04 </wgt>
<wgt id='1315'> +7.0846240e+04 </wgt>
<wgt id='1316'> +7.0760991e+04 </wgt>
<wgt id='1317'> +7.0661972e+04 </wgt>
<wgt id='1318'> +7.0818500e+04 </wgt>
<wgt id='1319'> +7.0691206e+04 </wgt>
<wgt id='1320'> +7.0817693e+04 </wgt>
<wgt id='1321'> +7.0825836e+04 </wgt>
<wgt id='1322'> +7.0748118e+04 </wgt>
<wgt id='1323'> +7.0816493e+04 </wgt>
<wgt id='1324'> +6.9251022e+04 </wgt>
<wgt id='1325'> +7.2377692e+04 </wgt>
<wgt id='1326'> +6.9741310e+04 </wgt>
<wgt id='1327'> +6.1562660e+04 </wgt>
<wgt id='1328'> +7.4612435e+04 </wgt>
<wgt id='1329'> +7.4923518e+04 </wgt>
<wgt id='1330'> +7.8188896e+04 </wgt>
<wgt id='1331'> +7.4538549e+04 </wgt>
<wgt id='1332'> +7.9201374e+04 </wgt>
<wgt id='1333'> +7.7447893e+04 </wgt>
<wgt id='1334'> +6.9971414e+04 </wgt>
<wgt id='1335'> +6.9483349e+04 </wgt>
<wgt id='1336'> +7.4768581e+04 </wgt>
<wgt id='1337'> +7.5987025e+04 </wgt>
<wgt id='1338'> +7.6043543e+04 </wgt>
<wgt id='1339'> +7.1477652e+04 </wgt>
<wgt id='1340'> +6.7785749e+04 </wgt>
<wgt id='1341'> +7.4266083e+04 </wgt>
<wgt id='1342'> +8.0426905e+04 </wgt>
<wgt id='1343'> +7.7281253e+04 </wgt>
<wgt id='1344'> +7.7771084e+04 </wgt>
<wgt id='1345'> +7.3902237e+04 </wgt>
<wgt id='1346'> +6.9155531e+04 </wgt>
<wgt id='1347'> +7.6967251e+04 </wgt>
<wgt id='1348'> +7.3883440e+04 </wgt>
<wgt id='1349'> +7.4906531e+04 </wgt>
<wgt id='1350'> +7.6632693e+04 </wgt>
<wgt id='1351'> +7.3515080e+04 </wgt>
<wgt id='1352'> +7.6006029e+04 </wgt>
<wgt id='1353'> +8.0213250e+04 </wgt>
<wgt id='1354'> +7.7252905e+04 </wgt>
<wgt id='1355'> +7.7356673e+04 </wgt>
<wgt id='1356'> +7.5063393e+04 </wgt>
<wgt id='1357'> +7.1057740e+04 </wgt>
<wgt id='1358'> +7.6823537e+04 </wgt>
<wgt id='1359'> +7.4205959e+04 </wgt>
<wgt id='1360'> +7.9611241e+04 </wgt>
<wgt id='1361'> +8.2493878e+04 </wgt>
<wgt id='1362'> +7.9066218e+04 </wgt>
<wgt id='1363'> +7.5291611e+04 </wgt>
<wgt id='1364'> +7.6554474e+04 </wgt>
<wgt id='1365'> +7.1683373e+04 </wgt>
<wgt id='1366'> +7.5656049e+04 </wgt>
<wgt id='1367'> +7.7901363e+04 </wgt>
<wgt id='1368'> +7.3492887e+04 </wgt>
<wgt id='1369'> +7.2183674e+04 </wgt>
<wgt id='1370'> +7.2859917e+04 </wgt>
<wgt id='1371'> +7.1937180e+04 </wgt>
<wgt id='1372'> +8.0013023e+04 </wgt>
<wgt id='1373'> +7.1628171e+04 </wgt>
<wgt id='1374'> +7.6720848e+04 </wgt>
<wgt id='1375'> +7.7201836e+04 </wgt>
<wgt id='1376'> +7.0649438e+04 </wgt>
<wgt id='1377'> +7.5163971e+04 </wgt>
<wgt id='1378'> +6.8893123e+04 </wgt>
<wgt id='1379'> +7.7413005e+04 </wgt>
<wgt id='1380'> +7.6479673e+04 </wgt>
<wgt id='1381'> +7.3545163e+04 </wgt>
<wgt id='1382'> +6.8418475e+04 </wgt>
<wgt id='1383'> +7.3971652e+04 </wgt>
<wgt id='1384'> +7.7936805e+04 </wgt>
<wgt id='1385'> +6.6467906e+04 </wgt>
<wgt id='1386'> +7.6438316e+04 </wgt>
<wgt id='1387'> +7.4724930e+04 </wgt>
<wgt id='1388'> +7.6153619e+04 </wgt>
<wgt id='1389'> +7.8349679e+04 </wgt>
<wgt id='1390'> +6.1349880e+04 </wgt>
<wgt id='1391'> +7.0991740e+04 </wgt>
<wgt id='1392'> +7.1860831e+04 </wgt>
<wgt id='1393'> +7.0084589e+04 </wgt>
<wgt id='1394'> +7.1683373e+04 </wgt>
<wgt id='1395'> +7.5300489e+04 </wgt>
<wgt id='1396'> +7.7465748e+04 </wgt>
<wgt id='1397'> +7.7850354e+04 </wgt>
<wgt id='1398'> +7.4654929e+04 </wgt>
<wgt id='1399'> +7.5532388e+04 </wgt>
<wgt id='1400'> +8.0414393e+04 </wgt>
<wgt id='1401'> +7.5169904e+04 </wgt>
<wgt id='1402'> +7.9018943e+04 </wgt>
<wgt id='1403'> +7.5353471e+04 </wgt>
<wgt id='1404'> +7.6500624e+04 </wgt>
<wgt id='1405'> +6.5827025e+04 </wgt>
<wgt id='1406'> +7.4875751e+04 </wgt>
<wgt id='1407'> +7.6963778e+04 </wgt>
<wgt id='1408'> +7.8572087e+04 </wgt>
<wgt id='1409'> +7.3014879e+04 </wgt>
<wgt id='1410'> +7.6852834e+04 </wgt>
<wgt id='1411'> +7.2199750e+04 </wgt>
<wgt id='1412'> +7.9031657e+04 </wgt>
<wgt id='1413'> +7.5632450e+04 </wgt>
<wgt id='1414'> +6.6270670e+04 </wgt>
<wgt id='1415'> +6.4230438e+04 </wgt>
<wgt id='1416'> +7.1004673e+04 </wgt>
<wgt id='1417'> +7.2906182e+04 </wgt>
<wgt id='1418'> +8.0233101e+04 </wgt>
<wgt id='1419'> +7.4564070e+04 </wgt>
<wgt id='1420'> +6.7167655e+04 </wgt>
<wgt id='1421'> +7.8278070e+04 </wgt>
<wgt id='1422'> +7.3519687e+04 </wgt>
<wgt id='1423'> +6.9886207e+04 </wgt>
<wgt id='1424'> +6.8637822e+04 </wgt>
<wgt id='1425'> +7.5855300e+04 </wgt>
<wgt id='1426'> +7.6443129e+04 </wgt>
<wgt id='1427'> +7.7100020e+04 </wgt>
<wgt id='1428'> +8.0221468e+04 </wgt>
<wgt id='1429'> +7.4170549e+04 </wgt>
<wgt id='1430'> +7.4419211e+04 </wgt>
<wgt id='1431'> +7.4480136e+04 </wgt>
<wgt id='1432'> +7.5731217e+04 </wgt>
<wgt id='1433'> +7.3422258e+04 </wgt>
<wgt id='1434'> +7.4316331e+04 </wgt>
<wgt id='1435'> +7.3565737e+04 </wgt>
<wgt id='1436'> +7.2584043e+04 </wgt>
<wgt id='1437'> +7.5783108e+04 </wgt>
<wgt id='1438'> +7.4342049e+04 </wgt>
<wgt id='1439'> +7.2466373e+04 </wgt>
<wgt id='1440'> +7.4300017e+04 </wgt>
<wgt id='1441'> +7.3952177e+04 </wgt>
<wgt id='1442'> +7.4765758e+04 </wgt>
<wgt id='1443'> +7.4209618e+04 </wgt>
<wgt id='1444'> +7.4559100e+04 </wgt>
<wgt id='1445'> +7.4513613e+04 </wgt>
<wgt id='1446'> +7.4173649e+04 </wgt>
<wgt id='1447'> +7.4843805e+04 </wgt>
<wgt id='1448'> +7.4493606e+04 </wgt>
<wgt id='1449'> +7.4598814e+04 </wgt>
<wgt id='1450'> +7.4430256e+04 </wgt>
<wgt id='1451'> +7.4804160e+04 </wgt>
<wgt id='1452'> +7.4230748e+04 </wgt>
<wgt id='1453'> +7.4564499e+04 </wgt>
<wgt id='1454'> +7.4916641e+04 </wgt>
<wgt id='1455'> +7.4625934e+04 </wgt>
<wgt id='1456'> +7.4606376e+04 </wgt>
<wgt id='1457'> +7.4607616e+04 </wgt>
<wgt id='1458'> +7.4476982e+04 </wgt>
<wgt id='1459'> +7.4477585e+04 </wgt>
<wgt id='1460'> +7.4487032e+04 </wgt>
<wgt id='1461'> +7.4427605e+04 </wgt>
<wgt id='1462'> +7.4449524e+04 </wgt>
<wgt id='1463'> +7.4503096e+04 </wgt>
<wgt id='1464'> +7.4559726e+04 </wgt>
<wgt id='1465'> +7.4365393e+04 </wgt>
<wgt id='1466'> +7.4507367e+04 </wgt>
<wgt id='1467'> +7.4402884e+04 </wgt>
<wgt id='1468'> +7.4625531e+04 </wgt>
<wgt id='1469'> +7.4523684e+04 </wgt>
<wgt id='1470'> +7.4489845e+04 </wgt>
<wgt id='1471'> +7.4563188e+04 </wgt>
<wgt id='1472'> +7.4505819e+04 </wgt>
<wgt id='1473'> +7.4370692e+04 </wgt>
<wgt id='1474'> +7.4543138e+04 </wgt>
<wgt id='1475'> +7.4434336e+04 </wgt>
<wgt id='1476'> +7.4331445e+04 </wgt>
<wgt id='1477'> +7.4498924e+04 </wgt>
<wgt id='1478'> +7.4464961e+04 </wgt>
<wgt id='1479'> +7.4544066e+04 </wgt>
<wgt id='1480'> +7.4546592e+04 </wgt>
<wgt id='1481'> +7.4478542e+04 </wgt>
<wgt id='1482'> +7.4170549e+04 </wgt>
<wgt id='1483'> +7.4419211e+04 </wgt>
<wgt id='1484'> +7.5820663e+04 </wgt>
<wgt id='1485'> +7.8472809e+04 </wgt>
<wgt id='1486'> +7.7240794e+04 </wgt>
<wgt id='1487'> +7.1283100e+04 </wgt>
<wgt id='1488'> +7.4955888e+04 </wgt>
<wgt id='1489'> +7.6675188e+04 </wgt>
<wgt id='1490'> +6.9098345e+04 </wgt>
<wgt id='1491'> +6.9119518e+04 </wgt>
<wgt id='1492'> +7.3495947e+04 </wgt>
<wgt id='1493'> +7.6306337e+04 </wgt>
<wgt id='1494'> +7.6991222e+04 </wgt>
<wgt id='1495'> +6.8420707e+04 </wgt>
<wgt id='1496'> +7.3082671e+04 </wgt>
<wgt id='1497'> +6.9205139e+04 </wgt>
<wgt id='1498'> +8.1365078e+04 </wgt>
<wgt id='1499'> +7.6409063e+04 </wgt>
<wgt id='1500'> +7.1394685e+04 </wgt>
<wgt id='1501'> +7.1027308e+04 </wgt>
<wgt id='1502'> +7.8517441e+04 </wgt>
<wgt id='1503'> +7.2510897e+04 </wgt>
<wgt id='1504'> +7.6132403e+04 </wgt>
<wgt id='1505'> +7.7739882e+04 </wgt>
<wgt id='1506'> +7.4688199e+04 </wgt>
<wgt id='1507'> +7.7435952e+04 </wgt>
<wgt id='1508'> +6.9164369e+04 </wgt>
<wgt id='1509'> +7.7231136e+04 </wgt>
<wgt id='1510'> +7.2248566e+04 </wgt>
<wgt id='1511'> +7.6650114e+04 </wgt>
<wgt id='1512'> +7.2099975e+04 </wgt>
<wgt id='1513'> +7.3978422e+04 </wgt>
<wgt id='1514'> +7.4059413e+04 </wgt>
<wgt id='1515'> +7.4803949e+04 </wgt>
<wgt id='1516'> +7.2667878e+04 </wgt>
<wgt id='1517'> +7.8479699e+04 </wgt>
<wgt id='1518'> +7.6750464e+04 </wgt>
<wgt id='1519'> +7.6641638e+04 </wgt>
<wgt id='1520'> +7.6070013e+04 </wgt>
<wgt id='1521'> +7.4467542e+04 </wgt>
<wgt id='1522'> +7.6617663e+04 </wgt>
<wgt id='1523'> +7.6084792e+04 </wgt>
<wgt id='1524'> +7.8817259e+04 </wgt>
<wgt id='1525'> +7.8535763e+04 </wgt>
<wgt id='1526'> +7.8114742e+04 </wgt>
<wgt id='1527'> +7.7363030e+04 </wgt>
<wgt id='1528'> +7.7174884e+04 </wgt>
<wgt id='1529'> +7.6440461e+04 </wgt>
<wgt id='1530'> +7.6198116e+04 </wgt>
<wgt id='1531'> +7.3335084e+04 </wgt>
<wgt id='1532'> +6.9856146e+04 </wgt>
<wgt id='1533'> +7.9101062e+04 </wgt>
<wgt id='1534'> +7.5997857e+04 </wgt>
<wgt id='1535'> +7.1562397e+04 </wgt>
<wgt id='1536'> +7.8168979e+04 </wgt>
<wgt id='1537'> +7.5408917e+04 </wgt>
<wgt id='1538'> +7.7584450e+04 </wgt>
<wgt id='1539'> +7.7512098e+04 </wgt>
<wgt id='1540'> +7.6483772e+04 </wgt>
<wgt id='1541'> +8.0343645e+04 </wgt>
<wgt id='1542'> +7.6552124e+04 </wgt>
<wgt id='1543'> +7.7860167e+04 </wgt>
<wgt id='1544'> +7.8577593e+04 </wgt>
<wgt id='1545'> +8.0343311e+04 </wgt>
<wgt id='1546'> +7.8196500e+04 </wgt>
<wgt id='1547'> +7.9949705e+04 </wgt>
<wgt id='1548'> +7.5531070e+04 </wgt>
<wgt id='1549'> +7.7237941e+04 </wgt>
<wgt id='1550'> +7.6902636e+04 </wgt>
<wgt id='1551'> +7.8266984e+04 </wgt>
<wgt id='1552'> +8.1006761e+04 </wgt>
<wgt id='1553'> +7.8263129e+04 </wgt>
<wgt id='1554'> +7.5945065e+04 </wgt>
<wgt id='1555'> +7.4894022e+04 </wgt>
<wgt id='1556'> +7.6009718e+04 </wgt>
<wgt id='1557'> +7.5219673e+04 </wgt>
<wgt id='1558'> +7.8224850e+04 </wgt>
<wgt id='1559'> +7.9604086e+04 </wgt>
<wgt id='1560'> +7.6869049e+04 </wgt>
<wgt id='1561'> +7.8875294e+04 </wgt>
<wgt id='1562'> +7.7938711e+04 </wgt>
<wgt id='1563'> +7.2960677e+04 </wgt>
<wgt id='1564'> +7.6116692e+04 </wgt>
<wgt id='1565'> +7.2206976e+04 </wgt>
<wgt id='1566'> +7.4507623e+04 </wgt>
<wgt id='1567'> +7.6381034e+04 </wgt>
<wgt id='1568'> +7.6288716e+04 </wgt>
<wgt id='1569'> +7.7023961e+04 </wgt>
<wgt id='1570'> +7.8772586e+04 </wgt>
<wgt id='1571'> +7.9620606e+04 </wgt>
<wgt id='1572'> +7.6380208e+04 </wgt>
<wgt id='1573'> +7.6559621e+04 </wgt>
<wgt id='1574'> +7.3964715e+04 </wgt>
<wgt id='1575'> +7.2506731e+04 </wgt>
<wgt id='1576'> +7.8263339e+04 </wgt>
<wgt id='1577'> +7.4098381e+04 </wgt>
<wgt id='1578'> +7.6866468e+04 </wgt>
<wgt id='1579'> +7.3211652e+04 </wgt>
<wgt id='1580'> +7.9956610e+04 </wgt>
<wgt id='1581'> +7.9072358e+04 </wgt>
<wgt id='1582'> +7.7835849e+04 </wgt>
<wgt id='1583'> +7.4293515e+04 </wgt>
<wgt id='1584'> +6.3509975e+04 </wgt>
<wgt id='1585'> +6.7631842e+04 </wgt>
<wgt id='1586'> +5.3764027e+04 </wgt>
<wgt id='1587'> +7.3747544e+04 </wgt>
<wgt id='1588'> +7.4170549e+04 </wgt>
<wgt id='1589'> +7.4057558e+04 </wgt>
<wgt id='1590'> +7.3457457e+04 </wgt>
<wgt id='1591'> +7.4419211e+04 </wgt>
<wgt id='1592'> +7.3547396e+04 </wgt>
<wgt id='1593'> +7.2190409e+04 </wgt>
<wgt id='1594'> +7.1119897e+04 </wgt>
<wgt id='1595'> +6.9449304e+04 </wgt>
<wgt id='1596'> +6.9656482e+04 </wgt>
<wgt id='1597'> +7.5547987e+04 </wgt>
<wgt id='1598'> +6.8541920e+04 </wgt>
<wgt id='1599'> +7.5064407e+04 </wgt>
<wgt id='1600'> +6.6952519e+04 </wgt>
<wgt id='1601'> +7.6753967e+04 </wgt>
<wgt id='1602'> +6.8133725e+04 </wgt>
<wgt id='1603'> +7.5650532e+04 </wgt>
<wgt id='1604'> +7.3708192e+04 </wgt>
<wgt id='1605'> +7.1158581e+04 </wgt>
<wgt id='1606'> +7.1900264e+04 </wgt>
<wgt id='1607'> +7.0865447e+04 </wgt>
<wgt id='1608'> +7.1772281e+04 </wgt>
<wgt id='1609'> +7.1361526e+04 </wgt>
<wgt id='1610'> +6.9404097e+04 </wgt>
<wgt id='1611'> +7.4066581e+04 </wgt>
<wgt id='1612'> +7.3947814e+04 </wgt>
<wgt id='1613'> +6.7573606e+04 </wgt>
<wgt id='1614'> +7.2894415e+04 </wgt>
<wgt id='1615'> +7.0975807e+04 </wgt>
<wgt id='1616'> +7.2083208e+04 </wgt>
<wgt id='1617'> +7.1116309e+04 </wgt>
<wgt id='1618'> +7.2841417e+04 </wgt>
<wgt id='1619'> +7.0943314e+04 </wgt>
<wgt id='1620'> +6.9226530e+04 </wgt>
<wgt id='1621'> +7.3782293e+04 </wgt>
<wgt id='1622'> +7.2012466e+04 </wgt>
<wgt id='1623'> +7.0686270e+04 </wgt>
<wgt id='1624'> +7.1120373e+04 </wgt>
<wgt id='1625'> +7.2899594e+04 </wgt>
<wgt id='1626'> +7.1980792e+04 </wgt>
<wgt id='1627'> +7.0552446e+04 </wgt>
<wgt id='1628'> +7.3131761e+04 </wgt>
<wgt id='1629'> +7.1545384e+04 </wgt>
<wgt id='1630'> +7.5183011e+04 </wgt>
<wgt id='1631'> +6.8289127e+04 </wgt>
<wgt id='1632'> +6.9924299e+04 </wgt>
<wgt id='1633'> +7.3420949e+04 </wgt>
<wgt id='1634'> +7.4631909e+04 </wgt>
<wgt id='1635'> +6.9182697e+04 </wgt>
<wgt id='1636'> +6.9929083e+04 </wgt>
<wgt id='1637'> +7.4010050e+04 </wgt>
<wgt id='1638'> +6.8439359e+04 </wgt>
<wgt id='1639'> +7.3948954e+04 </wgt>
<wgt id='1640'> +7.4931717e+04 </wgt>
<wgt id='1641'> +6.9527003e+04 </wgt>
<wgt id='1642'> +7.1927564e+04 </wgt>
<wgt id='1643'> +7.1350591e+04 </wgt>
<wgt id='1644'> +7.1243220e+04 </wgt>
<wgt id='1645'> +7.0694395e+04 </wgt>
<wgt id='1646'> +7.2088985e+04 </wgt>
<wgt id='1647'> +7.2325059e+04 </wgt>
<wgt id='1648'> +7.1814430e+04 </wgt>
<wgt id='1649'> +7.2866489e+04 </wgt>
<wgt id='1650'> +7.2358614e+04 </wgt>
<wgt id='1651'> +7.2182538e+04 </wgt>
<wgt id='1652'> +6.9615798e+04 </wgt>
<wgt id='1653'> +7.0850481e+04 </wgt>
<wgt id='1654'> +7.3632548e+04 </wgt>
<wgt id='1655'> +7.5171310e+04 </wgt>
<wgt id='1656'> +7.3910979e+04 </wgt>
<wgt id='1657'> +7.1555588e+04 </wgt>
<wgt id='1658'> +7.3161105e+04 </wgt>
<wgt id='1659'> +7.3405414e+04 </wgt>
<wgt id='1660'> +7.3534905e+04 </wgt>
<wgt id='1661'> +7.5204598e+04 </wgt>
<wgt id='1662'> +7.2485178e+04 </wgt>
<wgt id='1663'> +7.2571935e+04 </wgt>
<wgt id='1664'> +7.2150725e+04 </wgt>
<wgt id='1665'> +7.1965709e+04 </wgt>
<wgt id='1666'> +7.3225931e+04 </wgt>
<wgt id='1667'> +7.1869884e+04 </wgt>
<wgt id='1668'> +7.5049400e+04 </wgt>
<wgt id='1669'> +7.4105307e+04 </wgt>
<wgt id='1670'> +7.2408451e+04 </wgt>
<wgt id='1671'> +7.5021965e+04 </wgt>
<wgt id='1672'> +7.1770640e+04 </wgt>
<wgt id='1673'> +7.3864107e+04 </wgt>
<wgt id='1674'> +7.3523815e+04 </wgt>
<wgt id='1675'> +7.4245355e+04 </wgt>
<wgt id='1676'> +7.4295298e+04 </wgt>
<wgt id='1677'> +7.3364988e+04 </wgt>
<wgt id='1678'> +7.4037919e+04 </wgt>
<wgt id='1679'> +7.2087743e+04 </wgt>
<wgt id='1680'> +7.6281999e+04 </wgt>
<wgt id='1681'> +7.4674254e+04 </wgt>
<wgt id='1682'> +7.2210005e+04 </wgt>
<wgt id='1683'> +7.6148039e+04 </wgt>
<wgt id='1684'> +7.1824243e+04 </wgt>
<wgt id='1685'> +7.3133137e+04 </wgt>
<wgt id='1686'> +7.3655633e+04 </wgt>
<wgt id='1687'> +7.7241000e+04 </wgt>
<wgt id='1688'> +6.8890138e+04 </wgt>
<wgt id='1689'> +7.5962157e+04 </wgt>
<wgt id='1690'> +7.1575268e+04 </wgt>
<wgt id='1691'> +7.2779663e+04 </wgt>
<wgt id='1692'> +7.3393500e+04 </wgt>
<wgt id='1693'> +7.8502242e+04 </wgt>
<wgt id='1694'> +7.0166909e+04 </wgt>
<wgt id='1695'> +7.2980512e+04 </wgt>
<wgt id='1696'> +7.4172655e+04 </wgt>
<wgt id='1697'> +7.5506781e+04 </wgt>
<wgt id='1698'> +7.2293389e+04 </wgt>
<wgt id='1699'> +7.1149516e+04 </wgt>
<wgt id='1700'> +7.7389423e+04 </wgt>
<wgt id='1701'> +7.2866287e+04 </wgt>
<wgt id='1702'> +7.5014015e+04 </wgt>
<wgt id='1703'> +7.5703002e+04 </wgt>
<wgt id='1704'> +7.2817090e+04 </wgt>
<wgt id='1705'> +6.9918095e+04 </wgt>
<wgt id='1706'> +7.6879414e+04 </wgt>
<wgt id='1707'> +7.3050865e+04 </wgt>
<wgt id='1708'> +7.4705443e+04 </wgt>
<wgt id='1709'> +7.2968005e+04 </wgt>
<wgt id='1710'> +7.5325774e+04 </wgt>
<wgt id='1711'> +7.2693488e+04 </wgt>
<wgt id='1712'> +7.3840723e+04 </wgt>
<wgt id='1713'> +7.3648379e+04 </wgt>
<wgt id='1714'> +7.4010982e+04 </wgt>
<wgt id='1715'> +6.9407626e+04 </wgt>
<wgt id='1716'> +7.4398089e+04 </wgt>
<wgt id='1717'> +6.4060068e+04 </wgt>
<wgt id='1718'> +6.4482919e+04 </wgt>
<wgt id='1719'> +6.3519661e+04 </wgt>
<wgt id='1720'> +6.2775966e+04 </wgt>
<wgt id='1721'> +6.5241251e+04 </wgt>
<wgt id='1722'> +6.3448803e+04 </wgt>
<wgt id='1723'> +6.5066254e+04 </wgt>
<wgt id='1724'> +6.4483848e+04 </wgt>
<wgt id='1725'> +6.3716122e+04 </wgt>
<wgt id='1726'> +6.3816989e+04 </wgt>
<wgt id='1727'> +6.4311287e+04 </wgt>
<wgt id='1728'> +6.3166254e+04 </wgt>
<wgt id='1729'> +6.4929730e+04 </wgt>
<wgt id='1730'> +6.4288852e+04 </wgt>
<wgt id='1731'> +6.3897558e+04 </wgt>
<wgt id='1732'> +6.5014404e+04 </wgt>
<wgt id='1733'> +6.5014404e+04 </wgt>
<wgt id='1734'> +6.3789162e+04 </wgt>
<wgt id='1735'> +6.4238005e+04 </wgt>
<wgt id='1736'> +6.3434010e+04 </wgt>
<wgt id='1737'> +6.4932282e+04 </wgt>
<wgt id='1738'> +6.4064502e+04 </wgt>
<wgt id='1739'> +6.3983780e+04 </wgt>
<wgt id='1740'> +6.4077710e+04 </wgt>
<wgt id='1741'> +6.4019203e+04 </wgt>
<wgt id='1742'> +6.5201039e+04 </wgt>
<wgt id='1743'> +6.2811648e+04 </wgt>
<wgt id='1744'> +6.3974811e+04 </wgt>
<wgt id='1745'> +6.4288607e+04 </wgt>
<wgt id='1746'> +6.4292307e+04 </wgt>
<wgt id='1747'> +6.3898777e+04 </wgt>
<wgt id='1748'> +6.4356655e+04 </wgt>
<wgt id='1749'> +6.3023251e+04 </wgt>
<wgt id='1750'> +6.4446927e+04 </wgt>
<wgt id='1751'> +6.3645413e+04 </wgt>
<wgt id='1752'> +6.3372955e+04 </wgt>
<wgt id='1753'> +6.4969492e+04 </wgt>
<wgt id='1754'> +6.4180098e+04 </wgt>
<wgt id='1755'> +6.3989287e+04 </wgt>
<wgt id='1756'> +6.3683909e+04 </wgt>
<wgt id='1757'> +6.5058808e+04 </wgt>
<wgt id='1758'> +6.3808126e+04 </wgt>
<wgt id='1759'> +6.4306273e+04 </wgt>
<wgt id='1760'> +6.6284662e+04 </wgt>
<wgt id='1761'> +6.1960880e+04 </wgt>
<wgt id='1762'> +6.3909233e+04 </wgt>
<wgt id='1763'> +6.4118019e+04 </wgt>
<wgt id='1764'> +6.3734243e+04 </wgt>
<wgt id='1765'> +6.5423020e+04 </wgt>
<wgt id='1766'> +6.3645715e+04 </wgt>
<wgt id='1767'> +6.4603147e+04 </wgt>
<wgt id='1768'> +6.3630743e+04 </wgt>
<wgt id='1769'> +6.4402253e+04 </wgt>
<wgt id='1770'> +6.4102337e+04 </wgt>
<wgt id='1771'> +6.3662584e+04 </wgt>
<wgt id='1772'> +6.4377217e+04 </wgt>
<wgt id='1773'> +6.3478736e+04 </wgt>
<wgt id='1774'> +6.2736338e+04 </wgt>
<wgt id='1775'> +6.4932752e+04 </wgt>
<wgt id='1776'> +6.3609238e+04 </wgt>
<wgt id='1777'> +6.4254292e+04 </wgt>
<wgt id='1778'> +6.2635861e+04 </wgt>
<wgt id='1779'> +6.4252562e+04 </wgt>
<wgt id='1780'> +6.6360652e+04 </wgt>
<wgt id='1781'> +6.3971956e+04 </wgt>
<wgt id='1782'> +6.4060068e+04 </wgt>
<wgt id='1783'> +6.4064298e+04 </wgt>
<wgt id='1784'> +6.9560084e+04 </wgt>
<wgt id='1785'> +7.0366010e+04 </wgt>
<wgt id='1786'> +6.5636053e+04 </wgt>
<wgt id='1787'> +6.9735653e+04 </wgt>
<wgt id='1788'> +6.9127271e+04 </wgt>
<wgt id='1789'> +6.9990168e+04 </wgt>
<wgt id='1790'> +7.0855655e+04 </wgt>
<wgt id='1791'> +7.0176272e+04 </wgt>
<wgt id='1792'> +6.9860698e+04 </wgt>
<wgt id='1793'> +7.0501542e+04 </wgt>
<wgt id='1794'> +6.9905441e+04 </wgt>
<wgt id='1795'> +6.9386982e+04 </wgt>
<wgt id='1796'> +6.9617910e+04 </wgt>
<wgt id='1797'> +7.0358392e+04 </wgt>
<wgt id='1798'> +7.0099492e+04 </wgt>
<wgt id='1799'> +7.0611598e+04 </wgt>
<wgt id='1800'> +7.0071839e+04 </wgt>
<wgt id='1801'> +7.3171266e+04 </wgt>
<wgt id='1802'> +7.0803748e+04 </wgt>
<wgt id='1803'> +6.9665612e+04 </wgt>
<wgt id='1804'> +6.9614558e+04 </wgt>
<wgt id='1805'> +6.9419749e+04 </wgt>
<wgt id='1806'> +6.9732485e+04 </wgt>
<wgt id='1807'> +6.9535375e+04 </wgt>
<wgt id='1808'> +6.9617945e+04 </wgt>
<wgt id='1809'> +7.0082004e+04 </wgt>
<wgt id='1810'> +6.9640551e+04 </wgt>
<wgt id='1811'> +6.9595779e+04 </wgt>
<wgt id='1812'> +6.9486893e+04 </wgt>
<wgt id='1813'> +6.9392806e+04 </wgt>
<wgt id='1814'> +6.9833657e+04 </wgt>
<wgt id='1815'> +6.9488921e+04 </wgt>
<wgt id='1816'> +6.9682882e+04 </wgt>
<wgt id='1817'> +6.9845937e+04 </wgt>
<wgt id='1818'> +6.9568430e+04 </wgt>
<wgt id='1819'> +6.9317155e+04 </wgt>
<wgt id='1820'> +6.9397721e+04 </wgt>
<wgt id='1821'> +6.9222250e+04 </wgt>
<wgt id='1822'> +6.9741295e+04 </wgt>
<wgt id='1823'> +6.9691920e+04 </wgt>
<wgt id='1824'> +6.9797050e+04 </wgt>
<wgt id='1825'> +6.8267345e+04 </wgt>
<wgt id='1826'> +7.1063320e+04 </wgt>
<wgt id='1827'> +7.4032176e+04 </wgt>
<wgt id='1828'> +7.4494447e+04 </wgt>
<wgt id='1829'> +7.3612559e+04 </wgt>
<wgt id='1830'> +7.3742948e+04 </wgt>
<wgt id='1831'> +7.4361594e+04 </wgt>
<wgt id='1832'> +7.4027607e+04 </wgt>
<wgt id='1833'> +7.4076465e+04 </wgt>
<wgt id='1834'> +7.3176170e+04 </wgt>
<wgt id='1835'> +7.4889753e+04 </wgt>
<wgt id='1836'> +7.4805076e+04 </wgt>
<wgt id='1837'> +7.3288891e+04 </wgt>
<wgt id='1838'> +7.4555981e+04 </wgt>
<wgt id='1839'> +7.3564281e+04 </wgt>
<wgt id='1840'> +7.3793279e+04 </wgt>
<wgt id='1841'> +7.4316352e+04 </wgt>
<wgt id='1842'> +7.4021712e+04 </wgt>
<wgt id='1843'> +7.4176226e+04 </wgt>
<wgt id='1844'> +7.4430677e+04 </wgt>
<wgt id='1845'> +7.3654069e+04 </wgt>
<wgt id='1846'> +7.4655757e+04 </wgt>
<wgt id='1847'> +7.3475282e+04 </wgt>
<wgt id='1848'> +7.3962489e+04 </wgt>
<wgt id='1849'> +7.4025294e+04 </wgt>
<wgt id='1850'> +7.4604561e+04 </wgt>
<wgt id='1851'> +7.3486183e+04 </wgt>
<wgt id='1852'> +7.5184620e+04 </wgt>
<wgt id='1853'> +7.2803789e+04 </wgt>
<wgt id='1854'> +7.5211482e+04 </wgt>
<wgt id='1855'> +7.2975223e+04 </wgt>
<wgt id='1856'> +6.4250026e+04 </wgt>
<wgt id='1857'> +6.4233226e+04 </wgt>
<wgt id='1858'> +6.4178643e+04 </wgt>
<wgt id='1859'> +6.4173145e+04 </wgt>
<wgt id='1860'> +6.4257386e+04 </wgt>
<wgt id='1861'> +6.4670286e+04 </wgt>
<wgt id='1862'> +6.3499669e+04 </wgt>
<wgt id='1863'> +6.4606702e+04 </wgt>
<wgt id='1864'> +6.3950851e+04 </wgt>
<wgt id='1865'> +6.3646721e+04 </wgt>
<wgt id='1866'> +6.4260235e+04 </wgt>
<wgt id='1867'> +6.4266272e+04 </wgt>
<wgt id='1868'> +6.4245531e+04 </wgt>
<wgt id='1869'> +6.4395053e+04 </wgt>
<wgt id='1870'> +6.4182961e+04 </wgt>
<wgt id='1871'> +6.4514755e+04 </wgt>
<wgt id='1872'> +6.3965447e+04 </wgt>
<wgt id='1873'> +6.4158389e+04 </wgt>
<wgt id='1874'> +6.4423314e+04 </wgt>
<wgt id='1875'> +6.4430687e+04 </wgt>
<wgt id='1876'> +6.4417286e+04 </wgt>
<wgt id='1877'> +6.3848711e+04 </wgt>
<wgt id='1878'> +6.4516863e+04 </wgt>
<wgt id='1879'> +6.4385931e+04 </wgt>
<wgt id='1880'> +6.4293133e+04 </wgt>
<wgt id='1881'> +6.4018804e+04 </wgt>
<wgt id='1882'> +6.4361000e+04 </wgt>
<wgt id='1883'> +6.4667370e+04 </wgt>
<wgt id='1884'> +6.3735156e+04 </wgt>
<wgt id='1885'> +6.4039565e+04 </wgt>
<wgt id='1886'> +7.8986835e+04 </wgt>
<wgt id='1887'> +7.7834630e+04 </wgt>
<wgt id='1888'> +4.5844554e+04 </wgt>
<wgt id='1889'> +5.8780451e+04 </wgt>
</rwgt>
</event>
<event npLO=" -1 " npNLO=" 0 ">
 5      1 +7.4519530e+04 3.73305720e+01 7.55820760e-03 1.19618810e-01
        1 -1    0    0  501    0 +0.0000000000e+00 +0.0000000000e+00 +3.0021520207e+02 3.0021520207e+02 0.0000000000e+00 0.0000e+00 -1.0000e+00
       -2 -1    0    0    0  501 +0.0000000000e+00 +0.0000000000e+00 -5.7455848381e+00 5.7455848381e+00 0.0000000000e+00 0.0000e+00 1.0000e+00
      -24  2    1    2    0    0 +0.0000000000e+00 +0.0000000000e+00 +2.9446961723e+02 3.0596078691e+02 8.3064117720e+01 0.0000e+00 0.0000e+00
       11  1    3    3    0    0 -3.1884061486e+01 -2.2184509088e+01 +2.0139074871e+02 2.0510236344e+02 0.0000000000e+00 0.0000e+00 -1.0000e+00
      -12  1    3    3    0    0 +3.1884061486e+01 +2.2184509088e+01 +9.3078868521e+01 1.0085842347e+02 0.0000000000e+00 0.0000e+00 1.0000e+00
#aMCatNLO 1  0  0  1  2 0.89343562E+01 0.00000000E+00 -9  5  0 0.00000000E+00 0.00000000E+00 0.00000000E+00 0.00000000E+00 0.00000000E+00
<rwgt>
<wgt id='1001'> +7.4519530e+04 </wgt>
<wgt id='1002'> +7.2050213e+04 </wgt>
<wgt id='1003'> +7.7591418e+04 </wgt>
<wgt id='1004'> +9.3436919e+04 </wgt>
<wgt id='1005'> +8.9654029e+04 </wgt>
<wgt id='1006'> +9.8143486e+04 </wgt>
<wgt id='1007'> +5.8108101e+04 </wgt>
<wgt id='1008'> +5.6665992e+04 </wgt>
<wgt id='1009'> +5.9901707e+04 </wgt>
<wgt id='1010'> +7.4519530e+04 </wgt>
<wgt id='1011'> +7.4784462e+04 </wgt>
<wgt id='1012'> +7.4248471e+04 </wgt>
<wgt id='1013'> +7.4233167e+04 </wgt>
<wgt id='1014'> +7.4662862e+04 </wgt>
<wgt id='1015'> +7.4574637e+04 </wgt>
<wgt id='1016'> +7.4361207e+04 </wgt>
<wgt id='1017'> +7.4635122e+04 </wgt>
<wgt id='1018'> +7.4087387e+04 </wgt>
<wgt id='1019'> +7.4935128e+04 </wgt>
<wgt id='1020'> +7.4250191e+04 </wgt>
<wgt id='1021'> +7.4606213e+04 </wgt>
<wgt id='1022'> +7.4552051e+04 </wgt>
<wgt id='1023'> +7.4648373e+04 </wgt>
<wgt id='1024'> +7.4700313e+04 </wgt>
<wgt id='1025'> +7.5165699e+04 </wgt>
<wgt id='1026'> +7.4193248e+04 </wgt>
<wgt id='1027'> +7.4514462e+04 </wgt>
<wgt id='1028'> +7.4112783e+04 </wgt>
<wgt id='1029'> +7.4768893e+04 </wgt>
<wgt id='1030'> +7.4472347e+04 </wgt>
<wgt id='1031'> +7.4569878e+04 </wgt>
<wgt id='1032'> +7.5001758e+04 </wgt>
<wgt id='1033'> +7.4341892e+04 </wgt>
<wgt id='1034'> +7.4546722e+04 </wgt>
<wgt id='1035'> +7.4258246e+04 </wgt>
<wgt id='1036'> +7.4138906e+04 </wgt>
<wgt id='1037'> +7.5287676e+04 </wgt>
<wgt id='1038'> +7.4878164e+04 </wgt>
<wgt id='1039'> +7.4773926e+04 </wgt>
<wgt id='1040'> +7.4532840e+04 </wgt>
<wgt id='1041'> +7.5238049e+04 </wgt>
<wgt id='1042'> +7.4434153e+04 </wgt>
<wgt id='1043'> +7.4758064e+04 </wgt>
<wgt id='1044'> +7.4692082e+04 </wgt>
<wgt id='1045'> +7.4647944e+04 </wgt>
<wgt id='1046'> +7.4379715e+04 </wgt>
<wgt id='1047'> +7.4567170e+04 </wgt>
<wgt id='1048'> +7.4606827e+04 </wgt>
<wgt id='1049'> +7.5024620e+04 </wgt>
<wgt id='1050'> +7.4595068e+04 </wgt>
<wgt id='1051'> +7.4929041e+04 </wgt>
<wgt id='1052'> +7.4506509e+04 </wgt>
<wgt id='1053'> +7.4221641e+04 </wgt>
<wgt id='1054'> +7.4102069e+04 </wgt>
<wgt id='1055'> +7.4525249e+04 </wgt>
<wgt id='1056'> +7.4789287e+04 </wgt>
<wgt id='1057'> +7.4450223e+04 </wgt>
<wgt id='1058'> +7.4691934e+04 </wgt>
<wgt id='1059'> +7.4318398e+04 </wgt>
<wgt id='1060'> +7.4390347e+04 </wgt>
<wgt id='1061'> +7.4317003e+04 </wgt>
<wgt id='1062'> +7.4516628e+04 </wgt>
<wgt id='1063'> +7.4429306e+04 </wgt>
<wgt id='1064'> +7.4592780e+04 </wgt>
<wgt id='1065'> +7.4508662e+04 </wgt>
<wgt id='1066'> +7.4549648e+04 </wgt>
<wgt id='1067'> +7.4660108e+04 </wgt>
<wgt id='1068'> +7.4613625e+04 </wgt>
<wgt id='1069'> +7.4767392e+04 </wgt>
<wgt id='1070'> +7.4502538e+04 </wgt>
<wgt id='1071'> +7.4633256e+04 </wgt>
<wgt id='1072'> +7.4524279e+04 </wgt>
<wgt id='1073'> +7.4392658e+04 </wgt>
<wgt id='1074'> +7.4406787e+04 </wgt>
<wgt id='1075'> +7.4650509e+04 </wgt>
<wgt id='1076'> +7.4521660e+04 </wgt>
<wgt id='1077'> +7.4426273e+04 </wgt>
<wgt id='1078'> +7.4664752e+04 </wgt>
<wgt id='1079'> +7.4587790e+04 </wgt>
<wgt id='1080'> +7.4387264e+04 </wgt>
<wgt id='1081'> +7.4526905e+04 </wgt>
<wgt id='1082'> +7.4529500e+04 </wgt>
<wgt id='1083'> +7.4389353e+04 </wgt>
<wgt id='1084'> +7.4669237e+04 </wgt>
<wgt id='1085'> +7.4420997e+04 </wgt>
<wgt id='1086'> +7.4600608e+04 </wgt>
<wgt id='1087'> +7.4465069e+04 </wgt>
<wgt id='1088'> +7.4461609e+04 </wgt>
<wgt id='1089'> +7.4575503e+04 </wgt>
<wgt id='1090'> +7.4543846e+04 </wgt>
<wgt id='1091'> +7.4392346e+04 </wgt>
<wgt id='1092'> +7.4436855e+04 </wgt>
<wgt id='1093'> +7.4458696e+04 </wgt>
<wgt id='1094'> +7.4440498e+04 </wgt>
<wgt id='1095'> +7.4482686e+04 </wgt>
<wgt id='1096'> +7.4492259e+04 </wgt>
<wgt id='1097'> +7.4583582e+04 </wgt>
<wgt id='1098'> +7.4497138e+04 </wgt>
<wgt id='1099'> +7.4430442e+04 </wgt>
<wgt id='1100'> +7.4491737e+04 </wgt>
<wgt id='1101'> +7.4515272e+04 </wgt>
<wgt id='1102'> +7.4559798e+04 </wgt>
<wgt id='1103'> +7.4531947e+04 </wgt>
<wgt id='1104'> +7.4386210e+04 </wgt>
<wgt id='1105'> +7.4567693e+04 </wgt>
<wgt id='1106'> +7.4428603e+04 </wgt>
<wgt id='1107'> +7.4532042e+04 </wgt>
<wgt id='1108'> +7.4531738e+04 </wgt>
<wgt id='1109'> +7.4479536e+04 </wgt>
<wgt id='1110'> +7.4519533e+04 </wgt>
<wgt id='1111'> +7.3325197e+04 </wgt>
<wgt id='1112'> +7.5506529e+04 </wgt>
<wgt id='1113'> +7.4519533e+04 </wgt>
<wgt id='1114'> +8.0952541e+04 </wgt>
<wgt id='1115'> +7.6278635e+04 </wgt>
<wgt id='1116'> +7.2469439e+04 </wgt>
<wgt id='1117'> +7.0339820e+04 </wgt>
<wgt id='1118'> +7.2066435e+04 </wgt>
<wgt id='1119'> +7.7239611e+04 </wgt>
<wgt id='1120'> +7.5512267e+04 </wgt>
<wgt id='1121'> +7.4078091e+04 </wgt>
<wgt id='1122'> +7.3503930e+04 </wgt>
<wgt id='1123'> +7.1414861e+04 </wgt>
<wgt id='1124'> +7.3998216e+04 </wgt>
<wgt id='1125'> +7.1688548e+04 </wgt>
<wgt id='1126'> +7.3087592e+04 </wgt>
<wgt id='1127'> +7.7860129e+04 </wgt>
<wgt id='1128'> +7.6652985e+04 </wgt>
<wgt id='1129'> +7.4642130e+04 </wgt>
<wgt id='1130'> +7.6280932e+04 </wgt>
<wgt id='1131'> +7.3459378e+04 </wgt>
<wgt id='1132'> +7.4626680e+04 </wgt>
<wgt id='1133'> +7.1352764e+04 </wgt>
<wgt id='1134'> +7.1419532e+04 </wgt>
<wgt id='1135'> +7.5432807e+04 </wgt>
<wgt id='1136'> +7.7526612e+04 </wgt>
<wgt id='1137'> +7.4161839e+04 </wgt>
<wgt id='1138'> +7.3998850e+04 </wgt>
<wgt id='1139'> +7.7001597e+04 </wgt>
<wgt id='1140'> +7.8099895e+04 </wgt>
<wgt id='1141'> +7.4193761e+04 </wgt>
<wgt id='1142'> +7.5311643e+04 </wgt>
<wgt id='1143'> +7.6457708e+04 </wgt>
<wgt id='1144'> +7.4028593e+04 </wgt>
<wgt id='1145'> +7.4023897e+04 </wgt>
<wgt id='1146'> +7.7203957e+04 </wgt>
<wgt id='1147'> +7.2000555e+04 </wgt>
<wgt id='1148'> +7.4478947e+04 </wgt>
<wgt id='1149'> +7.4991773e+04 </wgt>
<wgt id='1150'> +7.4488311e+04 </wgt>
<wgt id='1151'> +7.3582133e+04 </wgt>
<wgt id='1152'> +7.3359110e+04 </wgt>
<wgt id='1153'> +7.4286020e+04 </wgt>
<wgt id='1154'> +7.1952178e+04 </wgt>
<wgt id='1155'> +7.5099412e+04 </wgt>
<wgt id='1156'> +7.4372899e+04 </wgt>
<wgt id='1157'> +7.3929310e+04 </wgt>
<wgt id='1158'> +7.4775577e+04 </wgt>
<wgt id='1159'> +7.5938170e+04 </wgt>
<wgt id='1160'> +7.3932937e+04 </wgt>
<wgt id='1161'> +7.4114304e+04 </wgt>
<wgt id='1162'> +7.7419007e+04 </wgt>
<wgt id='1163'> +7.4114629e+04 </wgt>
<wgt id='1164'> +7.6229386e+04 </wgt>
<wgt id='1165'> +7.3754787e+04 </wgt>
<wgt id='1166'> +7.5386765e+04 </wgt>
<wgt id='1167'> +7.6900324e+04 </wgt>
<wgt id='1168'> +7.4376804e+04 </wgt>
<wgt id='1169'> +7.5822663e+04 </wgt>
<wgt id='1170'> +7.9049149e+04 </wgt>
<wgt id='1171'> +7.3589212e+04 </wgt>
<wgt id='1172'> +7.5651065e+04 </wgt>
<wgt id='1173'> +7.6603442e+04 </wgt>
<wgt id='1174'> +7.4728435e+04 </wgt>
<wgt id='1175'> +7.6291901e+04 </wgt>
<wgt id='1176'> +7.3097195e+04 </wgt>
<wgt id='1177'> +7.3551166e+04 </wgt>
<wgt id='1178'> +7.5358656e+04 </wgt>
<wgt id='1179'> +7.7894892e+04 </wgt>
<wgt id='1180'> +7.6097542e+04 </wgt>
<wgt id='1181'> +7.6260848e+04 </wgt>
<wgt id='1182'> +7.4094019e+04 </wgt>
<wgt id='1183'> +7.4012105e+04 </wgt>
<wgt id='1184'> +7.3652296e+04 </wgt>
<wgt id='1185'> +7.8397173e+04 </wgt>
<wgt id='1186'> +6.9331717e+04 </wgt>
<wgt id='1187'> +7.1233007e+04 </wgt>
<wgt id='1188'> +7.3037575e+04 </wgt>
<wgt id='1189'> +7.5993668e+04 </wgt>
<wgt id='1190'> +7.0776846e+04 </wgt>
<wgt id='1191'> +7.4932198e+04 </wgt>
<wgt id='1192'> +7.3200546e+04 </wgt>
<wgt id='1193'> +7.2084882e+04 </wgt>
<wgt id='1194'> +7.3649388e+04 </wgt>
<wgt id='1195'> +7.4642130e+04 </wgt>
<wgt id='1196'> +7.0465113e+04 </wgt>
<wgt id='1197'> +7.3816078e+04 </wgt>
<wgt id='1198'> +7.3898921e+04 </wgt>
<wgt id='1199'> +7.8588767e+04 </wgt>
<wgt id='1200'> +7.5574746e+04 </wgt>
<wgt id='1201'> +7.5823642e+04 </wgt>
<wgt id='1202'> +6.7320298e+04 </wgt>
<wgt id='1203'> +7.2331427e+04 </wgt>
<wgt id='1204'> +7.6030280e+04 </wgt>
<wgt id='1205'> +7.3581422e+04 </wgt>
<wgt id='1206'> +7.3506551e+04 </wgt>
<wgt id='1207'> +7.7847986e+04 </wgt>
<wgt id='1208'> +7.4039861e+04 </wgt>
<wgt id='1209'> +7.4726284e+04 </wgt>
<wgt id='1210'> +7.4944617e+04 </wgt>
<wgt id='1211'> +7.3330387e+04 </wgt>
<wgt id='1212'> +7.3625346e+04 </wgt>
<wgt id='1213'> +7.3850357e+04 </wgt>
<wgt id='1214'> +7.4431134e+04 </wgt>
<wgt id='1215'> +7.0260027e+04 </wgt>
<wgt id='1216'> +7.0578063e+04 </wgt>
<wgt id='1217'> +7.1654249e+04 </wgt>
<wgt id='1218'> +7.2907895e+04 </wgt>
<wgt id='1219'> +7.4061742e+04 </wgt>
<wgt id='1220'> +7.4792690e+04 </wgt>
<wgt id='1221'> +7.6519402e+04 </wgt>
<wgt id='1222'> +7.6858333e+04 </wgt>
<wgt id='1223'> +7.2410943e+04 </wgt>
<wgt id='1224'> +7.2335861e+04 </wgt>
<wgt id='1225'> +7.2611725e+04 </wgt>
<wgt id='1226'> +7.2312406e+04 </wgt>
<wgt id='1227'> +7.2732216e+04 </wgt>
<wgt id='1228'> +7.2423031e+04 </wgt>
<wgt id='1229'> +7.2161126e+04 </wgt>
<wgt id='1230'> +7.2417440e+04 </wgt>
<wgt id='1231'> +7.2371650e+04 </wgt>
<wgt id='1232'> +7.2506942e+04 </wgt>
<wgt id='1233'> +7.1991449e+04 </wgt>
<wgt id='1234'> +7.2296151e+04 </wgt>
<wgt id='1235'> +7.2501701e+04 </wgt>
<wgt id='1236'> +7.2559555e+04 </wgt>
<wgt id='1237'> +7.2643910e+04 </wgt>
<wgt id='1238'> +7.2019316e+04 </wgt>
<wgt id='1239'> +7.2690064e+04 </wgt>
<wgt id='1240'> +7.2228224e+04 </wgt>
<wgt id='1241'> +7.2620728e+04 </wgt>
<wgt id='1242'> +7.2433245e+04 </wgt>
<wgt id='1243'> +7.1967271e+04 </wgt>
<wgt id='1244'> +7.2862530e+04 </wgt>
<wgt id='1245'> +7.2492968e+04 </wgt>
<wgt id='1246'> +7.2512976e+04 </wgt>
<wgt id='1247'> +7.2955361e+04 </wgt>
<wgt id='1248'> +7.1897122e+04 </wgt>
<wgt id='1249'> +7.2424303e+04 </wgt>
<wgt id='1250'> +7.2233079e+04 </wgt>
<wgt id='1251'> +7.2385936e+04 </wgt>
<wgt id='1252'> +7.3369278e+04 </wgt>
<wgt id='1253'> +7.2212665e+04 </wgt>
<wgt id='1254'> +7.1631348e+04 </wgt>
<wgt id='1255'> +7.2744987e+04 </wgt>
<wgt id='1256'> +7.2265528e+04 </wgt>
<wgt id='1257'> +7.2255331e+04 </wgt>
<wgt id='1258'> +7.2622742e+04 </wgt>
<wgt id='1259'> +7.2449002e+04 </wgt>
<wgt id='1260'> +7.2098709e+04 </wgt>
<wgt id='1261'> +7.2276490e+04 </wgt>
<wgt id='1262'> +7.2586022e+04 </wgt>
<wgt id='1263'> +7.2391290e+04 </wgt>
<wgt id='1264'> +7.2655893e+04 </wgt>
<wgt id='1265'> +7.2183135e+04 </wgt>
<wgt id='1266'> +7.2100559e+04 </wgt>
<wgt id='1267'> +7.2225135e+04 </wgt>
<wgt id='1268'> +7.2138419e+04 </wgt>
<wgt id='1269'> +7.2525546e+04 </wgt>
<wgt id='1270'> +7.2740396e+04 </wgt>
<wgt id='1271'> +7.2626246e+04 </wgt>
<wgt id='1272'> +7.2463082e+04 </wgt>
<wgt id='1273'> +7.2567483e+04 </wgt>
<wgt id='1274'> +7.2233563e+04 </wgt>
<wgt id='1275'> +7.2273399e+04 </wgt>
<wgt id='1276'> +7.2334851e+04 </wgt>
<wgt id='1277'> +7.2540987e+04 </wgt>
<wgt id='1278'> +7.2636217e+04 </wgt>
<wgt id='1279'> +7.2393378e+04 </wgt>
<wgt id='1280'> +7.2371970e+04 </wgt>
<wgt id='1281'> +7.2566371e+04 </wgt>
<wgt id='1282'> +7.2405580e+04 </wgt>
<wgt id='1283'> +7.2223075e+04 </wgt>
<wgt id='1284'> +7.2467491e+04 </wgt>
<wgt id='1285'> +7.2555506e+04 </wgt>
<wgt id='1286'> +7.2600043e+04 </wgt>
<wgt id='1287'> +7.2350815e+04 </wgt>
<wgt id='1288'> +7.2289991e+04 </wgt>
<wgt id='1289'> +7.2392825e+04 </wgt>
<wgt id='1290'> +7.2330275e+04 </wgt>
<wgt id='1291'> +7.2398109e+04 </wgt>
<wgt id='1292'> +7.2378627e+04 </wgt>
<wgt id='1293'> +7.2473463e+04 </wgt>
<wgt id='1294'> +7.2450427e+04 </wgt>
<wgt id='1295'> +7.2606584e+04 </wgt>
<wgt id='1296'> +7.2391002e+04 </wgt>
<wgt id='1297'> +7.2511490e+04 </wgt>
<wgt id='1298'> +7.2463452e+04 </wgt>
<wgt id='1299'> +7.2460681e+04 </wgt>
<wgt id='1300'> +7.2468015e+04 </wgt>
<wgt id='1301'> +7.2544521e+04 </wgt>
<wgt id='1302'> +7.2478155e+04 </wgt>
<wgt id='1303'> +7.2422621e+04 </wgt>
<wgt id='1304'> +7.2536317e+04 </wgt>
<wgt id='1305'> +7.2348664e+04 </wgt>
<wgt id='1306'> +7.2389038e+04 </wgt>
<wgt id='1307'> +7.2386457e+04 </wgt>
<wgt id='1308'> +7.2390872e+04 </wgt>
<wgt id='1309'> +7.2456254e+04 </wgt>
<wgt id='1310'> +7.2302757e+04 </wgt>
<wgt id='1311'> +7.2407884e+04 </wgt>
<wgt id='1312'> +7.2474521e+04 </wgt>
<wgt id='1313'> +7.2503077e+04 </wgt>
<wgt id='1314'> +7.2453580e+04 </wgt>
<wgt id='1315'> +7.2488705e+04 </wgt>
<wgt id='1316'> +7.2397439e+04 </wgt>
<wgt id='1317'> +7.2394254e+04 </wgt>
<wgt id='1318'> +7.2444972e+04 </wgt>
<wgt id='1319'> +7.2332252e+04 </wgt>
<wgt id='1320'> +7.2403543e+04 </wgt>
<wgt id='1321'> +7.2389481e+04 </wgt>
<wgt id='1322'> +7.2434736e+04 </wgt>
<wgt id='1323'> +7.2368071e+04 </wgt>
<wgt id='1324'> +7.1375620e+04 </wgt>
<wgt id='1325'> +7.3681665e+04 </wgt>
<wgt id='1326'> +7.1335729e+04 </wgt>
<wgt id='1327'> +6.6722227e+04 </wgt>
<wgt id='1328'> +7.3611815e+04 </wgt>
<wgt id='1329'> +7.2009286e+04 </wgt>
<wgt id='1330'> +7.5458248e+04 </wgt>
<wgt id='1331'> +7.3202124e+04 </wgt>
<wgt id='1332'> +7.5771056e+04 </wgt>
<wgt id='1333'> +7.3773297e+04 </wgt>
<wgt id='1334'> +7.2223151e+04 </wgt>
<wgt id='1335'> +7.1264617e+04 </wgt>
<wgt id='1336'> +7.4038377e+04 </wgt>
<wgt id='1337'> +7.4496960e+04 </wgt>
<wgt id='1338'> +7.2851256e+04 </wgt>
<wgt id='1339'> +7.3557396e+04 </wgt>
<wgt id='1340'> +7.1961735e+04 </wgt>
<wgt id='1341'> +7.1513218e+04 </wgt>
<wgt id='1342'> +7.5802177e+04 </wgt>
<wgt id='1343'> +7.3850604e+04 </wgt>
<wgt id='1344'> +7.3129834e+04 </wgt>
<wgt id='1345'> +7.5790572e+04 </wgt>
<wgt id='1346'> +7.5014691e+04 </wgt>
<wgt id='1347'> +7.4291463e+04 </wgt>
<wgt id='1348'> +6.8124117e+04 </wgt>
<wgt id='1349'> +7.3702197e+04 </wgt>
<wgt id='1350'> +7.4167465e+04 </wgt>
<wgt id='1351'> +7.1710337e+04 </wgt>
<wgt id='1352'> +7.6484133e+04 </wgt>
<wgt id='1353'> +7.6578597e+04 </wgt>
<wgt id='1354'> +7.2772545e+04 </wgt>
<wgt id='1355'> +7.4893539e+04 </wgt>
<wgt id='1356'> +7.5368532e+04 </wgt>
<wgt id='1357'> +7.2810369e+04 </wgt>
<wgt id='1358'> +7.4749487e+04 </wgt>
<wgt id='1359'> +7.3065919e+04 </wgt>
<wgt id='1360'> +7.6399221e+04 </wgt>
<wgt id='1361'> +7.6171821e+04 </wgt>
<wgt id='1362'> +7.4514049e+04 </wgt>
<wgt id='1363'> +7.2208942e+04 </wgt>
<wgt id='1364'> +7.3467613e+04 </wgt>
<wgt id='1365'> +7.3963928e+04 </wgt>
<wgt id='1366'> +7.4479235e+04 </wgt>
<wgt id='1367'> +7.5794862e+04 </wgt>
<wgt id='1368'> +7.3340184e+04 </wgt>
<wgt id='1369'> +7.2884914e+04 </wgt>
<wgt id='1370'> +7.0157258e+04 </wgt>
<wgt id='1371'> +7.4525657e+04 </wgt>
<wgt id='1372'> +7.6989523e+04 </wgt>
<wgt id='1373'> +7.2866607e+04 </wgt>
<wgt id='1374'> +7.4278296e+04 </wgt>
<wgt id='1375'> +7.4607635e+04 </wgt>
<wgt id='1376'> +7.3602016e+04 </wgt>
<wgt id='1377'> +7.5917625e+04 </wgt>
<wgt id='1378'> +7.3137057e+04 </wgt>
<wgt id='1379'> +7.3052557e+04 </wgt>
<wgt id='1380'> +7.3681348e+04 </wgt>
<wgt id='1381'> +7.4302303e+04 </wgt>
<wgt id='1382'> +7.0258159e+04 </wgt>
<wgt id='1383'> +7.2700084e+04 </wgt>
<wgt id='1384'> +7.4064698e+04 </wgt>
<wgt id='1385'> +6.6355953e+04 </wgt>
<wgt id='1386'> +7.5231029e+04 </wgt>
<wgt id='1387'> +7.3777996e+04 </wgt>
<wgt id='1388'> +7.4817621e+04 </wgt>
<wgt id='1389'> +7.4007075e+04 </wgt>
<wgt id='1390'> +6.8931018e+04 </wgt>
<wgt id='1391'> +7.2390170e+04 </wgt>
<wgt id='1392'> +7.2067922e+04 </wgt>
<wgt id='1393'> +7.0256471e+04 </wgt>
<wgt id='1394'> +7.3963928e+04 </wgt>
<wgt id='1395'> +7.3433062e+04 </wgt>
<wgt id='1396'> +7.5341699e+04 </wgt>
<wgt id='1397'> +7.4563065e+04 </wgt>
<wgt id='1398'> +7.5184507e+04 </wgt>
<wgt id='1399'> +7.3274705e+04 </wgt>
<wgt id='1400'> +7.4382739e+04 </wgt>
<wgt id='1401'> +7.2534664e+04 </wgt>
<wgt id='1402'> +7.4231890e+04 </wgt>
<wgt id='1403'> +7.6486329e+04 </wgt>
<wgt id='1404'> +7.5028478e+04 </wgt>
<wgt id='1405'> +7.0294906e+04 </wgt>
<wgt id='1406'> +7.3295447e+04 </wgt>
<wgt id='1407'> +7.5957821e+04 </wgt>
<wgt id='1408'> +7.4535402e+04 </wgt>
<wgt id='1409'> +7.2363861e+04 </wgt>
<wgt id='1410'> +7.4634072e+04 </wgt>
<wgt id='1411'> +7.4280568e+04 </wgt>
<wgt id='1412'> +7.4206937e+04 </wgt>
<wgt id='1413'> +7.4707206e+04 </wgt>
<wgt id='1414'> +6.9617800e+04 </wgt>
<wgt id='1415'> +7.1837897e+04 </wgt>
<wgt id='1416'> +7.2921891e+04 </wgt>
<wgt id='1417'> +7.1727841e+04 </wgt>
<wgt id='1418'> +7.6747754e+04 </wgt>
<wgt id='1419'> +7.4144367e+04 </wgt>
<wgt id='1420'> +7.1718098e+04 </wgt>
<wgt id='1421'> +7.3696420e+04 </wgt>
<wgt id='1422'> +7.3656105e+04 </wgt>
<wgt id='1423'> +7.4396179e+04 </wgt>
<wgt id='1424'> +7.2008249e+04 </wgt>
<wgt id='1425'> +7.4270161e+04 </wgt>
<wgt id='1426'> +7.3004693e+04 </wgt>
<wgt id='1427'> +7.4168538e+04 </wgt>
<wgt id='1428'> +7.4825839e+04 </wgt>
<wgt id='1429'> +7.3297505e+04 </wgt>
<wgt id='1430'> +7.3736349e+04 </wgt>
<wgt id='1431'> +7.3544266e+04 </wgt>
<wgt id='1432'> +7.3846202e+04 </wgt>
<wgt id='1433'> +7.3453225e+04 </wgt>
<wgt id='1434'> +7.3546984e+04 </wgt>
<wgt id='1435'> +7.3186187e+04 </wgt>
<wgt id='1436'> +7.2802986e+04 </wgt>
<wgt id='1437'> +7.3953725e+04 </wgt>
<wgt id='1438'> +7.3612703e+04 </wgt>
<wgt id='1439'> +7.2661034e+04 </wgt>
<wgt id='1440'> +7.3471830e+04 </wgt>
<wgt id='1441'> +7.3268736e+04 </wgt>
<wgt id='1442'> +7.3328381e+04 </wgt>
<wgt id='1443'> +7.3260770e+04 </wgt>
<wgt id='1444'> +7.3047939e+04 </wgt>
<wgt id='1445'> +7.2944804e+04 </wgt>
<wgt id='1446'> +7.3670438e+04 </wgt>
<wgt id='1447'> +7.3322397e+04 </wgt>
<wgt id='1448'> +7.3652092e+04 </wgt>
<wgt id='1449'> +7.3595342e+04 </wgt>
<wgt id='1450'> +7.3495083e+04 </wgt>
<wgt id='1451'> +7.3306010e+04 </wgt>
<wgt id='1452'> +7.3169880e+04 </wgt>
<wgt id='1453'> +7.3347660e+04 </wgt>
<wgt id='1454'> +7.3473243e+04 </wgt>
<wgt id='1455'> +7.3540927e+04 </wgt>
<wgt id='1456'> +7.3478791e+04 </wgt>
<wgt id='1457'> +7.3251400e+04 </wgt>
<wgt id='1458'> +7.3545903e+04 </wgt>
<wgt id='1459'> +7.3563042e+04 </wgt>
<wgt id='1460'> +7.3431973e+04 </wgt>
<wgt id='1461'> +7.3608076e+04 </wgt>
<wgt id='1462'> +7.3567904e+04 </wgt>
<wgt id='1463'> +7.3479941e+04 </wgt>
<wgt id='1464'> +7.3399794e+04 </wgt>
<wgt id='1465'> +7.3538904e+04 </wgt>
<wgt id='1466'> +7.3431766e+04 </wgt>
<wgt id='1467'> +7.3582462e+04 </wgt>
<wgt id='1468'> +7.3506000e+04 </wgt>
<wgt id='1469'> +7.3619884e+04 </wgt>
<wgt id='1470'> +7.3576561e+04 </wgt>
<wgt id='1471'> +7.3541630e+04 </wgt>
<wgt id='1472'> +7.3513976e+04 </wgt>
<wgt id='1473'> +7.3573785e+04 </wgt>
<wgt id='1474'> +7.3547132e+04 </wgt>
<wgt id='1475'> +7.3576105e+04 </wgt>
<wgt id='1476'> +7.3616534e+04 </wgt>
<wgt id='1477'> +7.3497887e+04 </wgt>
<wgt id='1478'> +7.3595920e+04 </wgt>
<wgt id='1479'> +7.3503648e+04 </wgt>
<wgt id='1480'> +7.3461581e+04 </wgt>
<wgt id='1481'> +7.3567065e+04 </wgt>
<wgt id='1482'> +7.3297505e+04 </wgt>
<wgt id='1483'> +7.3736349e+04 </wgt>
<wgt id='1484'> +7.4509733e+04 </wgt>
<wgt id='1485'> +7.4980884e+04 </wgt>
<wgt id='1486'> +7.6607351e+04 </wgt>
<wgt id='1487'> +7.4019003e+04 </wgt>
<wgt id='1488'> +7.4899746e+04 </wgt>
<wgt id='1489'> +7.3637271e+04 </wgt>
<wgt id='1490'> +7.1054776e+04 </wgt>
<wgt id='1491'> +7.4330650e+04 </wgt>
<wgt id='1492'> +7.2264397e+04 </wgt>
<wgt id='1493'> +7.5466133e+04 </wgt>
<wgt id='1494'> +7.4601460e+04 </wgt>
<wgt id='1495'> +7.1476084e+04 </wgt>
<wgt id='1496'> +7.1798623e+04 </wgt>
<wgt id='1497'> +7.2207291e+04 </wgt>
<wgt id='1498'> +7.6155704e+04 </wgt>
<wgt id='1499'> +7.6002254e+04 </wgt>
<wgt id='1500'> +7.2782276e+04 </wgt>
<wgt id='1501'> +7.3035286e+04 </wgt>
<wgt id='1502'> +7.5190983e+04 </wgt>
<wgt id='1503'> +7.3629626e+04 </wgt>
<wgt id='1504'> +7.4080421e+04 </wgt>
<wgt id='1505'> +7.4965027e+04 </wgt>
<wgt id='1506'> +7.3724408e+04 </wgt>
<wgt id='1507'> +7.3329907e+04 </wgt>
<wgt id='1508'> +7.2213296e+04 </wgt>
<wgt id='1509'> +7.7165544e+04 </wgt>
<wgt id='1510'> +7.8695647e+04 </wgt>
<wgt id='1511'> +7.6408452e+04 </wgt>
<wgt id='1512'> +7.3735353e+04 </wgt>
<wgt id='1513'> +7.3053019e+04 </wgt>
<wgt id='1514'> +7.3712943e+04 </wgt>
<wgt id='1515'> +7.4409799e+04 </wgt>
<wgt id='1516'> +7.4596265e+04 </wgt>
<wgt id='1517'> +7.5669493e+04 </wgt>
<wgt id='1518'> +7.4580395e+04 </wgt>
<wgt id='1519'> +7.4118211e+04 </wgt>
<wgt id='1520'> +7.6489504e+04 </wgt>
<wgt id='1521'> +7.4086660e+04 </wgt>
<wgt id='1522'> +7.5402360e+04 </wgt>
<wgt id='1523'> +7.4470033e+04 </wgt>
<wgt id='1524'> +7.6066080e+04 </wgt>
<wgt id='1525'> +7.4075034e+04 </wgt>
<wgt id='1526'> +7.3818526e+04 </wgt>
<wgt id='1527'> +7.4708468e+04 </wgt>
<wgt id='1528'> +7.4941130e+04 </wgt>
<wgt id='1529'> +7.4821099e+04 </wgt>
<wgt id='1530'> +7.3109493e+04 </wgt>
<wgt id='1531'> +7.5821636e+04 </wgt>
<wgt id='1532'> +7.2951510e+04 </wgt>
<wgt id='1533'> +7.7075702e+04 </wgt>
<wgt id='1534'> +7.4553016e+04 </wgt>
<wgt id='1535'> +7.5294783e+04 </wgt>
<wgt id='1536'> +7.4330175e+04 </wgt>
<wgt id='1537'> +7.6268378e+04 </wgt>
<wgt id='1538'> +7.4360474e+04 </wgt>
<wgt id='1539'> +7.4927323e+04 </wgt>
<wgt id='1540'> +7.5112796e+04 </wgt>
<wgt id='1541'> +7.4608418e+04 </wgt>
<wgt id='1542'> +7.4924677e+04 </wgt>
<wgt id='1543'> +7.5484334e+04 </wgt>
<wgt id='1544'> +7.4083555e+04 </wgt>
<wgt id='1545'> +7.5288683e+04 </wgt>
<wgt id='1546'> +7.3014838e+04 </wgt>
<wgt id='1547'> +7.4944097e+04 </wgt>
<wgt id='1548'> +7.4683028e+04 </wgt>
<wgt id='1549'> +7.6234388e+04 </wgt>
<wgt id='1550'> +7.7095427e+04 </wgt>
<wgt id='1551'> +7.5378493e+04 </wgt>
<wgt id='1552'> +7.5037901e+04 </wgt>
<wgt id='1553'> +7.6005220e+04 </wgt>
<wgt id='1554'> +7.4858434e+04 </wgt>
<wgt id='1555'> +7.3546969e+04 </wgt>
<wgt id='1556'> +7.1445822e+04 </wgt>
<wgt id='1557'> +7.3809788e+04 </wgt>
<wgt id='1558'> +7.4292294e+04 </wgt>
<wgt id='1559'> +7.5994042e+04 </wgt>
<wgt id='1560'> +7.6176213e+04 </wgt>
<wgt id='1561'> +7.6961756e+04 </wgt>
<wgt id='1562'> +7.4368224e+04 </wgt>
<wgt id='1563'> +7.5616481e+04 </wgt>
<wgt id='1564'> +7.5253381e+04 </wgt>
<wgt id='1565'> +7.5704631e+04 </wgt>
<wgt id='1566'> +7.2474816e+04 </wgt>
<wgt id='1567'> +7.5698229e+04 </wgt>
<wgt id='1568'> +7.4515218e+04 </wgt>
<wgt id='1569'> +7.4638904e+04 </wgt>
<wgt id='1570'> +7.5159173e+04 </wgt>
<wgt id='1571'> +7.3606138e+04 </wgt>
<wgt id='1572'> +7.3049918e+04 </wgt>
<wgt id='1573'> +7.5020955e+04 </wgt>
<wgt id='1574'> +7.1647420e+04 </wgt>
<wgt id='1575'> +7.2821248e+04 </wgt>
<wgt id='1576'> +7.4917087e+04 </wgt>
<wgt id='1577'> +7.1337243e+04 </wgt>
<wgt id='1578'> +7.5783598e+04 </wgt>
<wgt id='1579'> +7.1663768e+04 </wgt>
<wgt id='1580'> +7.4968109e+04 </wgt>
<wgt id='1581'> +7.7058530e+04 </wgt>
<wgt id='1582'> +7.5183842e+04 </wgt>
<wgt id='1583'> +7.4491714e+04 </wgt>
<wgt id='1584'> +7.1062554e+04 </wgt>
<wgt id='1585'> +7.1906279e+04 </wgt>
<wgt id='1586'> +6.4942110e+04 </wgt>
<wgt id='1587'> +7.3370156e+04 </wgt>
<wgt id='1588'> +7.3297505e+04 </wgt>
<wgt id='1589'> +7.3113945e+04 </wgt>
<wgt id='1590'> +7.3294108e+04 </wgt>
<wgt id='1591'> +7.3736349e+04 </wgt>
<wgt id='1592'> +7.3505698e+04 </wgt>
<wgt id='1593'> +7.5674786e+04 </wgt>
<wgt id='1594'> +7.4574260e+04 </wgt>
<wgt id='1595'> +7.5085834e+04 </wgt>
<wgt id='1596'> +7.5228651e+04 </wgt>
<wgt id='1597'> +7.6541955e+04 </wgt>
<wgt id='1598'> +7.4491949e+04 </wgt>
<wgt id='1599'> +7.6526427e+04 </wgt>
<wgt id='1600'> +7.3913558e+04 </wgt>
<wgt id='1601'> +7.7327025e+04 </wgt>
<wgt id='1602'> +7.3018535e+04 </wgt>
<wgt id='1603'> +7.8046278e+04 </wgt>
<wgt id='1604'> +7.6505403e+04 </wgt>
<wgt id='1605'> +7.6333606e+04 </wgt>
<wgt id='1606'> +7.4251155e+04 </wgt>
<wgt id='1607'> +7.6282870e+04 </wgt>
<wgt id='1608'> +7.4516114e+04 </wgt>
<wgt id='1609'> +7.5765769e+04 </wgt>
<wgt id='1610'> +7.6714860e+04 </wgt>
<wgt id='1611'> +7.4410917e+04 </wgt>
<wgt id='1612'> +7.7150053e+04 </wgt>
<wgt id='1613'> +7.2784214e+04 </wgt>
<wgt id='1614'> +7.5937858e+04 </wgt>
<wgt id='1615'> +7.5330922e+04 </wgt>
<wgt id='1616'> +7.5576095e+04 </wgt>
<wgt id='1617'> +7.4872001e+04 </wgt>
<wgt id='1618'> +7.5493299e+04 </wgt>
<wgt id='1619'> +7.6390751e+04 </wgt>
<wgt id='1620'> +7.5721254e+04 </wgt>
<wgt id='1621'> +7.5433207e+04 </wgt>
<wgt id='1622'> +7.5405595e+04 </wgt>
<wgt id='1623'> +7.4595291e+04 </wgt>
<wgt id='1624'> +7.6380959e+04 </wgt>
<wgt id='1625'> +7.3915840e+04 </wgt>
<wgt id='1626'> +7.4346869e+04 </wgt>
<wgt id='1627'> +7.6465313e+04 </wgt>
<wgt id='1628'> +7.6119743e+04 </wgt>
<wgt id='1629'> +7.5441370e+04 </wgt>
<wgt id='1630'> +7.4661086e+04 </wgt>
<wgt id='1631'> +7.5920333e+04 </wgt>
<wgt id='1632'> +7.6132228e+04 </wgt>
<wgt id='1633'> +7.4737254e+04 </wgt>
<wgt id='1634'> +7.6421795e+04 </wgt>
<wgt id='1635'> +7.4680128e+04 </wgt>
<wgt id='1636'> +7.5569331e+04 </wgt>
<wgt id='1637'> +7.5773959e+04 </wgt>
<wgt id='1638'> +7.5176181e+04 </wgt>
<wgt id='1639'> +7.5929905e+04 </wgt>
<wgt id='1640'> +7.6494432e+04 </wgt>
<wgt id='1641'> +7.4562709e+04 </wgt>
<wgt id='1642'> +7.4447048e+04 </wgt>
<wgt id='1643'> +7.6552152e+04 </wgt>
<wgt id='1644'> +7.6576419e+04 </wgt>
<wgt id='1645'> +7.4048429e+04 </wgt>
<wgt id='1646'> +7.5860364e+04 </wgt>
<wgt id='1647'> +7.5889375e+04 </wgt>
<wgt id='1648'> +7.5904496e+04 </wgt>
<wgt id='1649'> +7.5282931e+04 </wgt>
<wgt id='1650'> +7.6251086e+04 </wgt>
<wgt id='1651'> +7.4901430e+04 </wgt>
<wgt id='1652'> +7.5159716e+04 </wgt>
<wgt id='1653'> +7.5410449e+04 </wgt>
<wgt id='1654'> +7.5959367e+04 </wgt>
<wgt id='1655'> +7.6269191e+04 </wgt>
<wgt id='1656'> +7.7868026e+04 </wgt>
<wgt id='1657'> +7.7297152e+04 </wgt>
<wgt id='1658'> +7.6837472e+04 </wgt>
<wgt id='1659'> +7.8923643e+04 </wgt>
<wgt id='1660'> +7.8041580e+04 </wgt>
<wgt id='1661'> +7.8802203e+04 </wgt>
<wgt id='1662'> +7.6453834e+04 </wgt>
<wgt id='1663'> +7.6410379e+04 </wgt>
<wgt id='1664'> +7.7322146e+04 </wgt>
<wgt id='1665'> +7.6849136e+04 </wgt>
<wgt id='1666'> +7.8311574e+04 </wgt>
<wgt id='1667'> +7.7668540e+04 </wgt>
<wgt id='1668'> +7.8121148e+04 </wgt>
<wgt id='1669'> +7.9209305e+04 </wgt>
<wgt id='1670'> +7.5992822e+04 </wgt>
<wgt id='1671'> +7.8445829e+04 </wgt>
<wgt id='1672'> +7.8015741e+04 </wgt>
<wgt id='1673'> +7.7739186e+04 </wgt>
<wgt id='1674'> +7.8417637e+04 </wgt>
<wgt id='1675'> +7.8980120e+04 </wgt>
<wgt id='1676'> +7.6663067e+04 </wgt>
<wgt id='1677'> +7.7977800e+04 </wgt>
<wgt id='1678'> +7.8458253e+04 </wgt>
<wgt id='1679'> +7.6928086e+04 </wgt>
<wgt id='1680'> +7.9473921e+04 </wgt>
<wgt id='1681'> +7.8878162e+04 </wgt>
<wgt id='1682'> +7.6199960e+04 </wgt>
<wgt id='1683'> +7.7541001e+04 </wgt>
<wgt id='1684'> +7.8024073e+04 </wgt>
<wgt id='1685'> +7.8170809e+04 </wgt>
<wgt id='1686'> +7.6880712e+04 </wgt>
<wgt id='1687'> +7.8509025e+04 </wgt>
<wgt id='1688'> +7.6608710e+04 </wgt>
<wgt id='1689'> +7.7334074e+04 </wgt>
<wgt id='1690'> +7.9113846e+04 </wgt>
<wgt id='1691'> +7.8107966e+04 </wgt>
<wgt id='1692'> +7.7127415e+04 </wgt>
<wgt id='1693'> +7.9931683e+04 </wgt>
<wgt id='1694'> +7.6609457e+04 </wgt>
<wgt id='1695'> +7.7194472e+04 </wgt>
<wgt id='1696'> +7.7984173e+04 </wgt>
<wgt id='1697'> +7.8509979e+04 </wgt>
<wgt id='1698'> +7.7012442e+04 </wgt>
<wgt id='1699'> +7.6482284e+04 </wgt>
<wgt id='1700'> +7.9324397e+04 </wgt>
<wgt id='1701'> +7.6355743e+04 </wgt>
<wgt id='1702'> +7.9614119e+04 </wgt>
<wgt id='1703'> +7.8088635e+04 </wgt>
<wgt id='1704'> +7.8436483e+04 </wgt>
<wgt id='1705'> +7.8031767e+04 </wgt>
<wgt id='1706'> +7.7740849e+04 </wgt>
<wgt id='1707'> +7.5941745e+04 </wgt>
<wgt id='1708'> +7.9512163e+04 </wgt>
<wgt id='1709'> +7.8578897e+04 </wgt>
<wgt id='1710'> +7.7278481e+04 </wgt>
<wgt id='1711'> +7.7209175e+04 </wgt>
<wgt id='1712'> +7.7583985e+04 </wgt>
<wgt id='1713'> +7.7989423e+04 </wgt>
<wgt id='1714'> +7.7579132e+04 </wgt>
<wgt id='1715'> +7.4306493e+04 </wgt>
<wgt id='1716'> +7.7502262e+04 </wgt>
<wgt id='1717'> +7.0147051e+04 </wgt>
<wgt id='1718'> +6.9957683e+04 </wgt>
<wgt id='1719'> +7.0386236e+04 </wgt>
<wgt id='1720'> +7.0004207e+04 </wgt>
<wgt id='1721'> +7.0277667e+04 </wgt>
<wgt id='1722'> +6.9997007e+04 </wgt>
<wgt id='1723'> +7.0393193e+04 </wgt>
<wgt id='1724'> +7.0614030e+04 </wgt>
<wgt id='1725'> +6.9768018e+04 </wgt>
<wgt id='1726'> +7.0066294e+04 </wgt>
<wgt id='1727'> +7.0229757e+04 </wgt>
<wgt id='1728'> +6.9012318e+04 </wgt>
<wgt id='1729'> +7.1254180e+04 </wgt>
<wgt id='1730'> +7.0532260e+04 </wgt>
<wgt id='1731'> +6.9873051e+04 </wgt>
<wgt id='1732'> +7.0702987e+04 </wgt>
<wgt id='1733'> +7.0702987e+04 </wgt>
<wgt id='1734'> +6.9778768e+04 </wgt>
<wgt id='1735'> +7.0393719e+04 </wgt>
<wgt id='1736'> +6.9680600e+04 </wgt>
<wgt id='1737'> +7.0796049e+04 </wgt>
<wgt id='1738'> +7.0405221e+04 </wgt>
<wgt id='1739'> +6.9644898e+04 </wgt>
<wgt id='1740'> +7.0047320e+04 </wgt>
<wgt id='1741'> +7.0380186e+04 </wgt>
<wgt id='1742'> +6.9746116e+04 </wgt>
<wgt id='1743'> +7.0602597e+04 </wgt>
<wgt id='1744'> +7.0468047e+04 </wgt>
<wgt id='1745'> +6.9270202e+04 </wgt>
<wgt id='1746'> +6.9821789e+04 </wgt>
<wgt id='1747'> +7.0305392e+04 </wgt>
<wgt id='1748'> +7.0461414e+04 </wgt>
<wgt id='1749'> +6.9142855e+04 </wgt>
<wgt id='1750'> +7.0268960e+04 </wgt>
<wgt id='1751'> +7.0018635e+04 </wgt>
<wgt id='1752'> +7.0019959e+04 </wgt>
<wgt id='1753'> +7.0325968e+04 </wgt>
<wgt id='1754'> +7.0503708e+04 </wgt>
<wgt id='1755'> +6.9948472e+04 </wgt>
<wgt id='1756'> +6.9569262e+04 </wgt>
<wgt id='1757'> +7.1568362e+04 </wgt>
<wgt id='1758'> +7.0460029e+04 </wgt>
<wgt id='1759'> +6.9684632e+04 </wgt>
<wgt id='1760'> +7.0517469e+04 </wgt>
<wgt id='1761'> +6.9794798e+04 </wgt>
<wgt id='1762'> +7.0093411e+04 </wgt>
<wgt id='1763'> +7.0025179e+04 </wgt>
<wgt id='1764'> +7.0032143e+04 </wgt>
<wgt id='1765'> +7.0649570e+04 </wgt>
<wgt id='1766'> +7.0103526e+04 </wgt>
<wgt id='1767'> +7.0247388e+04 </wgt>
<wgt id='1768'> +7.0072878e+04 </wgt>
<wgt id='1769'> +7.0217171e+04 </wgt>
<wgt id='1770'> +6.9862351e+04 </wgt>
<wgt id='1771'> +7.0374049e+04 </wgt>
<wgt id='1772'> +7.0325805e+04 </wgt>
<wgt id='1773'> +7.0077445e+04 </wgt>
<wgt id='1774'> +6.9120863e+04 </wgt>
<wgt id='1775'> +7.0805049e+04 </wgt>
<wgt id='1776'> +6.9533862e+04 </wgt>
<wgt id='1777'> +7.0440650e+04 </wgt>
<wgt id='1778'> +6.9761860e+04 </wgt>
<wgt id='1779'> +7.0061099e+04 </wgt>
<wgt id='1780'> +7.0794005e+04 </wgt>
<wgt id='1781'> +7.0467610e+04 </wgt>
<wgt id='1782'> +7.0147051e+04 </wgt>
<wgt id='1783'> +7.0258073e+04 </wgt>
<wgt id='1784'> +7.2558014e+04 </wgt>
<wgt id='1785'> +7.2423546e+04 </wgt>
<wgt id='1786'> +7.0124663e+04 </wgt>
<wgt id='1787'> +7.2517334e+04 </wgt>
<wgt id='1788'> +7.2848484e+04 </wgt>
<wgt id='1789'> +7.2703185e+04 </wgt>
<wgt id='1790'> +7.2371016e+04 </wgt>
<wgt id='1791'> +7.2583409e+04 </wgt>
<wgt id='1792'> +7.1739798e+04 </wgt>
<wgt id='1793'> +7.2687534e+04 </wgt>
<wgt id='1794'> +7.3207257e+04 </wgt>
<wgt id='1795'> +7.2163139e+04 </wgt>
<wgt id='1796'> +7.2527822e+04 </wgt>
<wgt id='1797'> +7.2711956e+04 </wgt>
<wgt id='1798'> +7.2709515e+04 </wgt>
<wgt id='1799'> +7.3407660e+04 </wgt>
<wgt id='1800'> +7.3211237e+04 </wgt>
<wgt id='1801'> +7.3273393e+04 </wgt>
<wgt id='1802'> +7.3424141e+04 </wgt>
<wgt id='1803'> +7.2959763e+04 </wgt>
<wgt id='1804'> +7.2225981e+04 </wgt>
<wgt id='1805'> +7.1755422e+04 </wgt>
<wgt id='1806'> +7.2613988e+04 </wgt>
<wgt id='1807'> +7.2615390e+04 </wgt>
<wgt id='1808'> +7.2710039e+04 </wgt>
<wgt id='1809'> +7.1834722e+04 </wgt>
<wgt id='1810'> +7.2380901e+04 </wgt>
<wgt id='1811'> +7.2482939e+04 </wgt>
<wgt id='1812'> +7.2464150e+04 </wgt>
<wgt id='1813'> +7.1455961e+04 </wgt>
<wgt id='1814'> +7.2590757e+04 </wgt>
<wgt id='1815'> +7.2443581e+04 </wgt>
<wgt id='1816'> +7.2591416e+04 </wgt>
<wgt id='1817'> +7.2447435e+04 </wgt>
<wgt id='1818'> +7.2588884e+04 </wgt>
<wgt id='1819'> +7.2537719e+04 </wgt>
<wgt id='1820'> +7.2452596e+04 </wgt>
<wgt id='1821'> +7.2271438e+04 </wgt>
<wgt id='1822'> +7.2532771e+04 </wgt>
<wgt id='1823'> +7.2387559e+04 </wgt>
<wgt id='1824'> +7.3159693e+04 </wgt>
<wgt id='1825'> +7.2144109e+04 </wgt>
<wgt id='1826'> +7.3454911e+04 </wgt>
<wgt id='1827'> +7.1853017e+04 </wgt>
<wgt id='1828'> +7.2027822e+04 </wgt>
<wgt id='1829'> +7.1664569e+04 </wgt>
<wgt id='1830'> +7.1813101e+04 </wgt>
<wgt id='1831'> +7.1878003e+04 </wgt>
<wgt id='1832'> +7.1912872e+04 </wgt>
<wgt id='1833'> +7.1778637e+04 </wgt>
<wgt id='1834'> +7.1393895e+04 </wgt>
<wgt id='1835'> +7.2279924e+04 </wgt>
<wgt id='1836'> +7.2247396e+04 </wgt>
<wgt id='1837'> +7.1434223e+04 </wgt>
<wgt id='1838'> +7.2203566e+04 </wgt>
<wgt id='1839'> +7.1466148e+04 </wgt>
<wgt id='1840'> +7.1650569e+04 </wgt>
<wgt id='1841'> +7.2046647e+04 </wgt>
<wgt id='1842'> +7.1897614e+04 </wgt>
<wgt id='1843'> +7.1979408e+04 </wgt>
<wgt id='1844'> +7.1650726e+04 </wgt>
<wgt id='1845'> +7.2016114e+04 </wgt>
<wgt id='1846'> +7.1516851e+04 </wgt>
<wgt id='1847'> +7.2095705e+04 </wgt>
<wgt id='1848'> +7.1854812e+04 </wgt>
<wgt id='1849'> +7.1733279e+04 </wgt>
<wgt id='1850'> +7.2533900e+04 </wgt>
<wgt id='1851'> +7.1168603e+04 </wgt>
<wgt id='1852'> +7.3252019e+04 </wgt>
<wgt id='1853'> +7.0354567e+04 </wgt>
<wgt id='1854'> +7.3044401e+04 </wgt>
<wgt id='1855'> +7.0719226e+04 </wgt>
<wgt id='1856'> +7.1267725e+04 </wgt>
<wgt id='1857'> +7.1253141e+04 </wgt>
<wgt id='1858'> +7.1175674e+04 </wgt>
<wgt id='1859'> +7.1237584e+04 </wgt>
<wgt id='1860'> +7.1270223e+04 </wgt>
<wgt id='1861'> +7.1372039e+04 </wgt>
<wgt id='1862'> +7.0823841e+04 </wgt>
<wgt id='1863'> +7.1378526e+04 </wgt>
<wgt id='1864'> +7.1113273e+04 </wgt>
<wgt id='1865'> +7.0955916e+04 </wgt>
<wgt id='1866'> +7.1181752e+04 </wgt>
<wgt id='1867'> +7.1215681e+04 </wgt>
<wgt id='1868'> +7.1356975e+04 </wgt>
<wgt id='1869'> +7.1410281e+04 </wgt>
<wgt id='1870'> +7.1054800e+04 </wgt>
<wgt id='1871'> +7.1173864e+04 </wgt>
<wgt id='1872'> +7.1042784e+04 </wgt>
<wgt id='1873'> +7.1195738e+04 </wgt>
<wgt id='1874'> +7.1122463e+04 </wgt>
<wgt id='1875'> +7.1343440e+04 </wgt>
<wgt id='1876'> +7.1219866e+04 </wgt>
<wgt id='1877'> +7.0889047e+04 </wgt>
<wgt id='1878'> +7.1204074e+04 </wgt>
<wgt id='1879'> +7.1887525e+04 </wgt>
<wgt id='1880'> +7.1639184e+04 </wgt>
<wgt id='1881'> +7.1182768e+04 </wgt>
<wgt id='1882'> +7.1165020e+04 </wgt>
<wgt id='1883'> +7.1479655e+04 </wgt>
<wgt id='1884'> +7.0290598e+04 </wgt>
<wgt id='1885'> +7.0661198e+04 </wgt>
<wgt id='1886'> +7.6767253e+04 </wgt>
<wgt id='1887'> +7.9429813e+04 </wgt>
<wgt id='1888'> +6.3002872e+04 </wgt>
<wgt id='1889'> +7.5045436e+04 </wgt>
</rwgt>
</event>
<event npLO=" -1 " npNLO=" 0 ">
 5      0 +7.4519530e+04 2.72711930e+01 7.55820760e-03 1.17722340e-01
        2 -1    0    0  501    0 +0.0000000000e+00 +0.0000000000e+00 +1.9850655284e+03 1.9850655284e+03 0.0000000000e+00 0.0000e+00 -1.0000e+00
       -1 -1    0    0    0  501 +0.0000000000e+00 +0.0000000000e+00 -1.0634527603e+00 1.0634527603e+00 0.0000000000e+00 0.0000e+00 1.0000e+00
       24  2    1    2    0    0 +0.0000000000e+00 +0.0000000000e+00 +1.9840020757e+03 1.9861289812e+03 9.1891749697e+01 0.0000e+00 0.0000e+00
      -15  1    3    3    0    0 -4.1460771970e+01 +8.5336298241e+00 +1.3775746137e+03 1.3782259584e+03 1.7770000000e+00 0.0000e+00 1.0000e+00
       16  1    3    3    0    0 +4.1460771970e+01 -8.5336298241e+00 +6.0642746200e+02 6.0790302279e+02 0.0000000000e+00 0.0000e+00 -1.0000e+00
#aMCatNLO 1  0  0  1  2 0.13636969E+02 0.00000000E+00 -9  5  0 0.00000000E+00 0.00000000E+00 0.00000000E+00 0.00000000E+00 0.00000000E+00
<rwgt>
<wgt id='1001'> +7.4519530e+04 </wgt>
<wgt id='1002'> +7.1023460e+04 </wgt>
<wgt id='1003'> +7.8854290e+04 </wgt>
<wgt id='1004'> +9.7793890e+04 </wgt>
<wgt id='1005'> +9.2354290e+04 </wgt>
<wgt id='1006'> +1.0453881e+05 </wgt>
<wgt id='1007'> +5.3522776e+04 </wgt>
<wgt id='1008'> +5.1712837e+04 </wgt>
<wgt id='1009'> +5.5766618e+04 </wgt>
<wgt id='1010'> +7.4519530e+04 </wgt>
<wgt id='1011'> +7.4371867e+04 </wgt>
<wgt id='1012'> +7.5016982e+04 </wgt>
<wgt id='1013'> +7.3654652e+04 </wgt>
<wgt id='1014'> +7.4171992e+04 </wgt>
<wgt id='1015'> +7.4164127e+04 </wgt>
<wgt id='1016'> +7.4652857e+04 </wgt>
<wgt id='1017'> +7.4446709e+04 </wgt>
<wgt id='1018'> +7.4585116e+04 </wgt>
<wgt id='1019'> +7.3827600e+04 </wgt>
<wgt id='1020'> +7.4230893e+04 </wgt>
<wgt id='1021'> +7.4601083e+04 </wgt>
<wgt id='1022'> +7.4329427e+04 </wgt>
<wgt id='1023'> +7.4628320e+04 </wgt>
<wgt id='1024'> +7.4403323e+04 </wgt>
<wgt id='1025'> +7.4436296e+04 </wgt>
<wgt id='1026'> +7.4443103e+04 </wgt>
<wgt id='1027'> +7.4489501e+04 </wgt>
<wgt id='1028'> +7.4605782e+04 </wgt>
<wgt id='1029'> +7.4835558e+04 </wgt>
<wgt id='1030'> +7.4963047e+04 </wgt>
<wgt id='1031'> +7.4715518e+04 </wgt>
<wgt id='1032'> +7.4449893e+04 </wgt>
<wgt id='1033'> +7.4432528e+04 </wgt>
<wgt id='1034'> +7.4715860e+04 </wgt>
<wgt id='1035'> +7.4532561e+04 </wgt>
<wgt id='1036'> +7.4543565e+04 </wgt>
<wgt id='1037'> +7.4340764e+04 </wgt>
<wgt id='1038'> +7.4656897e+04 </wgt>
<wgt id='1039'> +7.4877022e+04 </wgt>
<wgt id='1040'> +7.4274056e+04 </wgt>
<wgt id='1041'> +7.5066871e+04 </wgt>
<wgt id='1042'> +7.4928564e+04 </wgt>
<wgt id='1043'> +7.4627119e+04 </wgt>
<wgt id='1044'> +7.4680409e+04 </wgt>
<wgt id='1045'> +7.4336703e+04 </wgt>
<wgt id='1046'> +7.4235493e+04 </wgt>
<wgt id='1047'> +7.4572783e+04 </wgt>
<wgt id='1048'> +7.4537485e+04 </wgt>
<wgt id='1049'> +7.4619779e+04 </wgt>
<wgt id='1050'> +7.4440181e+04 </wgt>
<wgt id='1051'> +7.4435973e+04 </wgt>
<wgt id='1052'> +7.4461184e+04 </wgt>
<wgt id='1053'> +7.4361568e+04 </wgt>
<wgt id='1054'> +7.4371200e+04 </wgt>
<wgt id='1055'> +7.4476460e+04 </wgt>
<wgt id='1056'> +7.4658669e+04 </wgt>
<wgt id='1057'> +7.4354787e+04 </wgt>
<wgt id='1058'> +7.4448412e+04 </wgt>
<wgt id='1059'> +7.4478611e+04 </wgt>
<wgt id='1060'> +7.4575143e+04 </wgt>
<wgt id='1061'> +7.4625862e+04 </wgt>
<wgt id='1062'> +7.4507164e+04 </wgt>
<wgt id='1063'> +7.4446108e+04 </wgt>
<wgt id='1064'> +7.4351064e+04 </wgt>
<wgt id='1065'> +7.4632237e+04 </wgt>
<wgt id='1066'> +7.4547633e+04 </wgt>
<wgt id='1067'> +7.4565066e+04 </wgt>
<wgt id='1068'> +7.4589950e+04 </wgt>
<wgt id='1069'> +7.4346703e+04 </wgt>
<wgt id='1070'> +7.4581430e+04 </wgt>
<wgt id='1071'> +7.4616283e+04 </wgt>
<wgt id='1072'> +7.4436917e+04 </wgt>
<wgt id='1073'> +7.4406086e+04 </wgt>
<wgt id='1074'> +7.4547969e+04 </wgt>
<wgt id='1075'> +7.4316718e+04 </wgt>
<wgt id='1076'> +7.4323434e+04 </wgt>
<wgt id='1077'> +7.4567534e+04 </wgt>
<wgt id='1078'> +7.4511284e+04 </wgt>
<wgt id='1079'> +7.4662326e+04 </wgt>
<wgt id='1080'> +7.4543844e+04 </wgt>
<wgt id='1081'> +7.4614649e+04 </wgt>
<wgt id='1082'> +7.4488022e+04 </wgt>
<wgt id='1083'> +7.4638777e+04 </wgt>
<wgt id='1084'> +7.4567561e+04 </wgt>
<wgt id='1085'> +7.4546201e+04 </wgt>
<wgt id='1086'> +7.4426597e+04 </wgt>
<wgt id='1087'> +7.4498939e+04 </wgt>
<wgt id='1088'> +7.4513217e+04 </wgt>
<wgt id='1089'> +7.4463935e+04 </wgt>
<wgt id='1090'> +7.4535796e+04 </wgt>
<wgt id='1091'> +7.4407864e+04 </wgt>
<wgt id='1092'> +7.4520410e+04 </wgt>
<wgt id='1093'> +7.4534760e+04 </wgt>
<wgt id='1094'> +7.4508145e+04 </wgt>
<wgt id='1095'> +7.4540338e+04 </wgt>
<wgt id='1096'> +7.4494999e+04 </wgt>
<wgt id='1097'> +7.4530402e+04 </wgt>
<wgt id='1098'> +7.4628575e+04 </wgt>
<wgt id='1099'> +7.4546918e+04 </wgt>
<wgt id='1100'> +7.4592240e+04 </wgt>
<wgt id='1101'> +7.4540624e+04 </wgt>
<wgt id='1102'> +7.4581894e+04 </wgt>
<wgt id='1103'> +7.4513775e+04 </wgt>
<wgt id='1104'> +7.4533563e+04 </wgt>
<wgt id='1105'> +7.4552667e+04 </wgt>
<wgt id='1106'> +7.4535571e+04 </wgt>
<wgt id='1107'> +7.4534081e+04 </wgt>
<wgt id='1108'> +7.4554952e+04 </wgt>
<wgt id='1109'> +7.4520546e+04 </wgt>
<wgt id='1110'> +7.4519523e+04 </wgt>
<wgt id='1111'> +7.3203020e+04 </wgt>
<wgt id='1112'> +7.5716156e+04 </wgt>
<wgt id='1113'> +7.4519523e+04 </wgt>
<wgt id='1114'> +7.2473488e+04 </wgt>
<wgt id='1115'> +7.6059376e+04 </wgt>
<wgt id='1116'> +7.1515241e+04 </wgt>
<wgt id='1117'> +7.4796174e+04 </wgt>
<wgt id='1118'> +7.2665167e+04 </wgt>
<wgt id='1119'> +7.3926093e+04 </wgt>
<wgt id='1120'> +7.7424910e+04 </wgt>
<wgt id='1121'> +7.5177521e+04 </wgt>
<wgt id='1122'> +7.4545140e+04 </wgt>
<wgt id='1123'> +7.0230780e+04 </wgt>
<wgt id='1124'> +7.2539414e+04 </wgt>
<wgt id='1125'> +7.4971338e+04 </wgt>
<wgt id='1126'> +7.3934600e+04 </wgt>
<wgt id='1127'> +7.3388830e+04 </wgt>
<wgt id='1128'> +7.6664562e+04 </wgt>
<wgt id='1129'> +7.3492105e+04 </wgt>
<wgt id='1130'> +7.4595734e+04 </wgt>
<wgt id='1131'> +7.4356525e+04 </wgt>
<wgt id='1132'> +7.5443685e+04 </wgt>
<wgt id='1133'> +7.5101262e+04 </wgt>
<wgt id='1134'> +7.7412248e+04 </wgt>
<wgt id='1135'> +7.7004126e+04 </wgt>
<wgt id='1136'> +7.7867937e+04 </wgt>
<wgt id='1137'> +7.3931973e+04 </wgt>
<wgt id='1138'> +7.5730980e+04 </wgt>
<wgt id='1139'> +7.1586183e+04 </wgt>
<wgt id='1140'> +7.6667306e+04 </wgt>
<wgt id='1141'> +7.5138348e+04 </wgt>
<wgt id='1142'> +7.4863352e+04 </wgt>
<wgt id='1143'> +7.4710921e+04 </wgt>
<wgt id='1144'> +7.4131824e+04 </wgt>
<wgt id='1145'> +7.4343489e+04 </wgt>
<wgt id='1146'> +7.5983867e+04 </wgt>
<wgt id='1147'> +7.3984398e+04 </wgt>
<wgt id='1148'> +7.4436305e+04 </wgt>
<wgt id='1149'> +7.4625021e+04 </wgt>
<wgt id='1150'> +7.2607396e+04 </wgt>
<wgt id='1151'> +7.5831799e+04 </wgt>
<wgt id='1152'> +7.7569247e+04 </wgt>
<wgt id='1153'> +7.6632259e+04 </wgt>
<wgt id='1154'> +7.3746603e+04 </wgt>
<wgt id='1155'> +7.4052671e+04 </wgt>
<wgt id='1156'> +7.4502695e+04 </wgt>
<wgt id='1157'> +7.6353598e+04 </wgt>
<wgt id='1158'> +7.2471363e+04 </wgt>
<wgt id='1159'> +7.3684834e+04 </wgt>
<wgt id='1160'> +7.5445971e+04 </wgt>
<wgt id='1161'> +7.0868958e+04 </wgt>
<wgt id='1162'> +7.7496692e+04 </wgt>
<wgt id='1163'> +7.4890314e+04 </wgt>
<wgt id='1164'> +7.3706194e+04 </wgt>
<wgt id='1165'> +7.6426730e+04 </wgt>
<wgt id='1166'> +7.5893888e+04 </wgt>
<wgt id='1167'> +7.7211456e+04 </wgt>
<wgt id='1168'> +7.3444519e+04 </wgt>
<wgt id='1169'> +7.2966267e+04 </wgt>
<wgt id='1170'> +7.3477678e+04 </wgt>
<wgt id='1171'> +7.4071263e+04 </wgt>
<wgt id='1172'> +7.4749333e+04 </wgt>
<wgt id='1173'> +7.2436995e+04 </wgt>
<wgt id='1174'> +7.6169322e+04 </wgt>
<wgt id='1175'> +7.3434286e+04 </wgt>
<wgt id='1176'> +7.5653824e+04 </wgt>
<wgt id='1177'> +7.2668199e+04 </wgt>
<wgt id='1178'> +7.5893249e+04 </wgt>
<wgt id='1179'> +6.9742336e+04 </wgt>
<wgt id='1180'> +7.4620343e+04 </wgt>
<wgt id='1181'> +7.4670611e+04 </wgt>
<wgt id='1182'> +7.6038714e+04 </wgt>
<wgt id='1183'> +7.7835684e+04 </wgt>
<wgt id='1184'> +7.4913466e+04 </wgt>
<wgt id='1185'> +7.0967421e+04 </wgt>
<wgt id='1186'> +7.2926843e+04 </wgt>
<wgt id='1187'> +7.5932992e+04 </wgt>
<wgt id='1188'> +7.1351488e+04 </wgt>
<wgt id='1189'> +7.3297081e+04 </wgt>
<wgt id='1190'> +7.5881111e+04 </wgt>
<wgt id='1191'> +7.6512672e+04 </wgt>
<wgt id='1192'> +7.1567629e+04 </wgt>
<wgt id='1193'> +7.1256241e+04 </wgt>
<wgt id='1194'> +7.5237639e+04 </wgt>
<wgt id='1195'> +7.3492105e+04 </wgt>
<wgt id='1196'> +7.4628080e+04 </wgt>
<wgt id='1197'> +7.4476302e+04 </wgt>
<wgt id='1198'> +7.6687367e+04 </wgt>
<wgt id='1199'> +7.4852601e+04 </wgt>
<wgt id='1200'> +7.5778768e+04 </wgt>
<wgt id='1201'> +7.6119588e+04 </wgt>
<wgt id='1202'> +7.2632545e+04 </wgt>
<wgt id='1203'> +7.4767422e+04 </wgt>
<wgt id='1204'> +7.7283187e+04 </wgt>
<wgt id='1205'> +7.7337155e+04 </wgt>
<wgt id='1206'> +7.5052270e+04 </wgt>
<wgt id='1207'> +7.5361847e+04 </wgt>
<wgt id='1208'> +7.3548892e+04 </wgt>
<wgt id='1209'> +7.7483209e+04 </wgt>
<wgt id='1210'> +6.8690673e+04 </wgt>
<wgt id='1211'> +7.3065406e+04 </wgt>
<wgt id='1212'> +7.2666322e+04 </wgt>
<wgt id='1213'> +7.4827819e+04 </wgt>
<wgt id='1214'> +7.4494267e+04 </wgt>
<wgt id='1215'> +6.8205934e+04 </wgt>
<wgt id='1216'> +6.9088378e+04 </wgt>
<wgt id='1217'> +7.0677759e+04 </wgt>
<wgt id='1218'> +7.2124289e+04 </wgt>
<wgt id='1219'> +7.4095993e+04 </wgt>
<wgt id='1220'> +7.4929845e+04 </wgt>
<wgt id='1221'> +7.7420444e+04 </wgt>
<wgt id='1222'> +7.8384668e+04 </wgt>
<wgt id='1223'> +7.2604470e+04 </wgt>
<wgt id='1224'> +7.1978643e+04 </wgt>
<wgt id='1225'> +7.3410178e+04 </wgt>
<wgt id='1226'> +7.2223292e+04 </wgt>
<wgt id='1227'> +7.2721241e+04 </wgt>
<wgt id='1228'> +7.2739984e+04 </wgt>
<wgt id='1229'> +7.2093992e+04 </wgt>
<wgt id='1230'> +7.2976346e+04 </wgt>
<wgt id='1231'> +7.3284862e+04 </wgt>
<wgt id='1232'> +7.2859764e+04 </wgt>
<wgt id='1233'> +7.2661802e+04 </wgt>
<wgt id='1234'> +7.2546348e+04 </wgt>
<wgt id='1235'> +7.2790390e+04 </wgt>
<wgt id='1236'> +7.2817008e+04 </wgt>
<wgt id='1237'> +7.2301642e+04 </wgt>
<wgt id='1238'> +7.2939234e+04 </wgt>
<wgt id='1239'> +7.2838715e+04 </wgt>
<wgt id='1240'> +7.2652827e+04 </wgt>
<wgt id='1241'> +7.2726693e+04 </wgt>
<wgt id='1242'> +7.2620979e+04 </wgt>
<wgt id='1243'> +7.2507423e+04 </wgt>
<wgt id='1244'> +7.2647309e+04 </wgt>
<wgt id='1245'> +7.2738916e+04 </wgt>
<wgt id='1246'> +7.2740971e+04 </wgt>
<wgt id='1247'> +7.2704169e+04 </wgt>
<wgt id='1248'> +7.2408644e+04 </wgt>
<wgt id='1249'> +7.2609956e+04 </wgt>
<wgt id='1250'> +7.2518456e+04 </wgt>
<wgt id='1251'> +7.2779253e+04 </wgt>
<wgt id='1252'> +7.2777016e+04 </wgt>
<wgt id='1253'> +7.1935912e+04 </wgt>
<wgt id='1254'> +7.2295867e+04 </wgt>
<wgt id='1255'> +7.2733569e+04 </wgt>
<wgt id='1256'> +7.2715581e+04 </wgt>
<wgt id='1257'> +7.2582714e+04 </wgt>
<wgt id='1258'> +7.2750134e+04 </wgt>
<wgt id='1259'> +7.2677755e+04 </wgt>
<wgt id='1260'> +7.2423821e+04 </wgt>
<wgt id='1261'> +7.2660078e+04 </wgt>
<wgt id='1262'> +7.2596257e+04 </wgt>
<wgt id='1263'> +7.2598442e+04 </wgt>
<wgt id='1264'> +7.2626099e+04 </wgt>
<wgt id='1265'> +7.2802524e+04 </wgt>
<wgt id='1266'> +7.2478287e+04 </wgt>
<wgt id='1267'> +7.2693169e+04 </wgt>
<wgt id='1268'> +7.2694745e+04 </wgt>
<wgt id='1269'> +7.2402148e+04 </wgt>
<wgt id='1270'> +7.2529003e+04 </wgt>
<wgt id='1271'> +7.2684209e+04 </wgt>
<wgt id='1272'> +7.2609355e+04 </wgt>
<wgt id='1273'> +7.2580038e+04 </wgt>
<wgt id='1274'> +7.2763740e+04 </wgt>
<wgt id='1275'> +7.2711964e+04 </wgt>
<wgt id='1276'> +7.2631960e+04 </wgt>
<wgt id='1277'> +7.2707921e+04 </wgt>
<wgt id='1278'> +7.2433103e+04 </wgt>
<wgt id='1279'> +7.2667630e+04 </wgt>
<wgt id='1280'> +7.2633635e+04 </wgt>
<wgt id='1281'> +7.2695410e+04 </wgt>
<wgt id='1282'> +7.2543400e+04 </wgt>
<wgt id='1283'> +7.2611993e+04 </wgt>
<wgt id='1284'> +7.2564785e+04 </wgt>
<wgt id='1285'> +7.2520876e+04 </wgt>
<wgt id='1286'> +7.2577389e+04 </wgt>
<wgt id='1287'> +7.2499480e+04 </wgt>
<wgt id='1288'> +7.2627900e+04 </wgt>
<wgt id='1289'> +7.2564818e+04 </wgt>
<wgt id='1290'> +7.2588493e+04 </wgt>
<wgt id='1291'> +7.2668646e+04 </wgt>
<wgt id='1292'> +7.2559781e+04 </wgt>
<wgt id='1293'> +7.2386115e+04 </wgt>
<wgt id='1294'> +7.2536221e+04 </wgt>
<wgt id='1295'> +7.2521348e+04 </wgt>
<wgt id='1296'> +7.2481324e+04 </wgt>
<wgt id='1297'> +7.2530534e+04 </wgt>
<wgt id='1298'> +7.2728662e+04 </wgt>
<wgt id='1299'> +7.2493956e+04 </wgt>
<wgt id='1300'> +7.2562222e+04 </wgt>
<wgt id='1301'> +7.2648331e+04 </wgt>
<wgt id='1302'> +7.2602081e+04 </wgt>
<wgt id='1303'> +7.2453809e+04 </wgt>
<wgt id='1304'> +7.2435961e+04 </wgt>
<wgt id='1305'> +7.2724892e+04 </wgt>
<wgt id='1306'> +7.2602996e+04 </wgt>
<wgt id='1307'> +7.2705030e+04 </wgt>
<wgt id='1308'> +7.2701029e+04 </wgt>
<wgt id='1309'> +7.2490272e+04 </wgt>
<wgt id='1310'> +7.2649568e+04 </wgt>
<wgt id='1311'> +7.2567726e+04 </wgt>
<wgt id='1312'> +7.2603465e+04 </wgt>
<wgt id='1313'> +7.2561549e+04 </wgt>
<wgt id='1314'> +7.2521709e+04 </wgt>
<wgt id='1315'> +7.2581266e+04 </wgt>
<wgt id='1316'> +7.2670493e+04 </wgt>
<wgt id='1317'> +7.2810469e+04 </wgt>
<wgt id='1318'> +7.2531110e+04 </wgt>
<wgt id='1319'> +7.2622961e+04 </wgt>
<wgt id='1320'> +7.2624162e+04 </wgt>
<wgt id='1321'> +7.2669909e+04 </wgt>
<wgt id='1322'> +7.2659901e+04 </wgt>
<wgt id='1323'> +7.2611315e+04 </wgt>
<wgt id='1324'> +7.0998499e+04 </wgt>
<wgt id='1325'> +7.3835813e+04 </wgt>
<wgt id='1326'> +7.4942159e+04 </wgt>
<wgt id='1327'> +7.2924187e+04 </wgt>
<wgt id='1328'> +7.4712754e+04 </wgt>
<wgt id='1329'> +7.4438104e+04 </wgt>
<wgt id='1330'> +7.4802538e+04 </wgt>
<wgt id='1331'> +7.5580592e+04 </wgt>
<wgt id='1332'> +7.5069761e+04 </wgt>
<wgt id='1333'> +7.5278656e+04 </wgt>
<wgt id='1334'> +7.3008860e+04 </wgt>
<wgt id='1335'> +7.3610078e+04 </wgt>
<wgt id='1336'> +7.5319880e+04 </wgt>
<wgt id='1337'> +7.5707600e+04 </wgt>
<wgt id='1338'> +7.4417811e+04 </wgt>
<wgt id='1339'> +7.4990299e+04 </wgt>
<wgt id='1340'> +7.5107360e+04 </wgt>
<wgt id='1341'> +7.3017238e+04 </wgt>
<wgt id='1342'> +7.4791343e+04 </wgt>
<wgt id='1343'> +7.4244287e+04 </wgt>
<wgt id='1344'> +7.2540746e+04 </wgt>
<wgt id='1345'> +7.6986078e+04 </wgt>
<wgt id='1346'> +7.3752154e+04 </wgt>
<wgt id='1347'> +7.5433846e+04 </wgt>
<wgt id='1348'> +7.4651379e+04 </wgt>
<wgt id='1349'> +7.5349964e+04 </wgt>
<wgt id='1350'> +7.1949910e+04 </wgt>
<wgt id='1351'> +7.4428089e+04 </wgt>
<wgt id='1352'> +7.4665702e+04 </wgt>
<wgt id='1353'> +7.5467719e+04 </wgt>
<wgt id='1354'> +7.5535010e+04 </wgt>
<wgt id='1355'> +7.5351980e+04 </wgt>
<wgt id='1356'> +7.5403048e+04 </wgt>
<wgt id='1357'> +7.4090859e+04 </wgt>
<wgt id='1358'> +7.4327265e+04 </wgt>
<wgt id='1359'> +7.4520924e+04 </wgt>
<wgt id='1360'> +7.3504340e+04 </wgt>
<wgt id='1361'> +7.6327608e+04 </wgt>
<wgt id='1362'> +7.4690093e+04 </wgt>
<wgt id='1363'> +7.6058658e+04 </wgt>
<wgt id='1364'> +7.4950366e+04 </wgt>
<wgt id='1365'> +7.3844540e+04 </wgt>
<wgt id='1366'> +7.4159942e+04 </wgt>
<wgt id='1367'> +7.4683206e+04 </wgt>
<wgt id='1368'> +7.5208201e+04 </wgt>
<wgt id='1369'> +7.4166438e+04 </wgt>
<wgt id='1370'> +7.4403560e+04 </wgt>
<wgt id='1371'> +7.4633688e+04 </wgt>
<wgt id='1372'> +7.4747544e+04 </wgt>
<wgt id='1373'> +7.4221476e+04 </wgt>
<wgt id='1374'> +7.6305106e+04 </wgt>
<wgt id='1375'> +7.6541222e+04 </wgt>
<wgt id='1376'> +7.5430489e+04 </wgt>
<wgt id='1377'> +7.4266172e+04 </wgt>
<wgt id='1378'> +7.3447249e+04 </wgt>
<wgt id='1379'> +7.6296895e+04 </wgt>
<wgt id='1380'> +7.2888356e+04 </wgt>
<wgt id='1381'> +7.4656663e+04 </wgt>
<wgt id='1382'> +7.3468760e+04 </wgt>
<wgt id='1383'> +7.4781086e+04 </wgt>
<wgt id='1384'> +7.4760037e+04 </wgt>
<wgt id='1385'> +7.3780736e+04 </wgt>
<wgt id='1386'> +7.5292949e+04 </wgt>
<wgt id='1387'> +7.4632952e+04 </wgt>
<wgt id='1388'> +7.6319846e+04 </wgt>
<wgt id='1389'> +7.3675226e+04 </wgt>
<wgt id='1390'> +7.2776439e+04 </wgt>
<wgt id='1391'> +7.4598882e+04 </wgt>
<wgt id='1392'> +7.4088372e+04 </wgt>
<wgt id='1393'> +7.3344827e+04 </wgt>
<wgt id='1394'> +7.3844540e+04 </wgt>
<wgt id='1395'> +7.4435166e+04 </wgt>
<wgt id='1396'> +7.2513656e+04 </wgt>
<wgt id='1397'> +7.5539113e+04 </wgt>
<wgt id='1398'> +7.5472912e+04 </wgt>
<wgt id='1399'> +7.5133368e+04 </wgt>
<wgt id='1400'> +7.6840018e+04 </wgt>
<wgt id='1401'> +7.5712348e+04 </wgt>
<wgt id='1402'> +7.5206615e+04 </wgt>
<wgt id='1403'> +7.3115181e+04 </wgt>
<wgt id='1404'> +7.6598664e+04 </wgt>
<wgt id='1405'> +7.2850759e+04 </wgt>
<wgt id='1406'> +7.4274625e+04 </wgt>
<wgt id='1407'> +7.4239248e+04 </wgt>
<wgt id='1408'> +7.6614905e+04 </wgt>
<wgt id='1409'> +7.4099341e+04 </wgt>
<wgt id='1410'> +7.4750487e+04 </wgt>
<wgt id='1411'> +7.4514875e+04 </wgt>
<wgt id='1412'> +7.6428834e+04 </wgt>
<wgt id='1413'> +7.5194260e+04 </wgt>
<wgt id='1414'> +7.4173894e+04 </wgt>
<wgt id='1415'> +7.4008716e+04 </wgt>
<wgt id='1416'> +7.5691593e+04 </wgt>
<wgt id='1417'> +7.4920802e+04 </wgt>
<wgt id='1418'> +7.6581400e+04 </wgt>
<wgt id='1419'> +7.6954325e+04 </wgt>
<wgt id='1420'> +7.4479398e+04 </wgt>
<wgt id='1421'> +7.4808851e+04 </wgt>
<wgt id='1422'> +7.5020474e+04 </wgt>
<wgt id='1423'> +7.4034772e+04 </wgt>
<wgt id='1424'> +7.4515802e+04 </wgt>
<wgt id='1425'> +7.3741266e+04 </wgt>
<wgt id='1426'> +7.4186731e+04 </wgt>
<wgt id='1427'> +7.4831736e+04 </wgt>
<wgt id='1428'> +7.5055356e+04 </wgt>
<wgt id='1429'> +7.4301667e+04 </wgt>
<wgt id='1430'> +7.5087980e+04 </wgt>
<wgt id='1431'> +7.4668243e+04 </wgt>
<wgt id='1432'> +7.5404478e+04 </wgt>
<wgt id='1433'> +7.4657141e+04 </wgt>
<wgt id='1434'> +7.4437565e+04 </wgt>
<wgt id='1435'> +7.4556932e+04 </wgt>
<wgt id='1436'> +7.4618249e+04 </wgt>
<wgt id='1437'> +7.4747329e+04 </wgt>
<wgt id='1438'> +7.4744268e+04 </wgt>
<wgt id='1439'> +7.4535047e+04 </wgt>
<wgt id='1440'> +7.4766012e+04 </wgt>
<wgt id='1441'> +7.4710943e+04 </wgt>
<wgt id='1442'> +7.4728187e+04 </wgt>
<wgt id='1443'> +7.4648980e+04 </wgt>
<wgt id='1444'> +7.4547717e+04 </wgt>
<wgt id='1445'> +7.4585403e+04 </wgt>
<wgt id='1446'> +7.4723480e+04 </wgt>
<wgt id='1447'> +7.4440782e+04 </wgt>
<wgt id='1448'> +7.4868788e+04 </wgt>
<wgt id='1449'> +7.4617197e+04 </wgt>
<wgt id='1450'> +7.4354287e+04 </wgt>
<wgt id='1451'> +7.4686397e+04 </wgt>
<wgt id='1452'> +7.4735656e+04 </wgt>
<wgt id='1453'> +7.4565845e+04 </wgt>
<wgt id='1454'> +7.4625621e+04 </wgt>
<wgt id='1455'> +7.4543751e+04 </wgt>
<wgt id='1456'> +7.4422706e+04 </wgt>
<wgt id='1457'> +7.4803345e+04 </wgt>
<wgt id='1458'> +7.4571314e+04 </wgt>
<wgt id='1459'> +7.4712397e+04 </wgt>
<wgt id='1460'> +7.4795280e+04 </wgt>
<wgt id='1461'> +7.4776304e+04 </wgt>
<wgt id='1462'> +7.4735952e+04 </wgt>
<wgt id='1463'> +7.4670215e+04 </wgt>
<wgt id='1464'> +7.4693938e+04 </wgt>
<wgt id='1465'> +7.4631345e+04 </wgt>
<wgt id='1466'> +7.4654262e+04 </wgt>
<wgt id='1467'> +7.4514132e+04 </wgt>
<wgt id='1468'> +7.4594397e+04 </wgt>
<wgt id='1469'> +7.4746708e+04 </wgt>
<wgt id='1470'> +7.4749985e+04 </wgt>
<wgt id='1471'> +7.4535842e+04 </wgt>
<wgt id='1472'> +7.4645747e+04 </wgt>
<wgt id='1473'> +7.4611217e+04 </wgt>
<wgt id='1474'> +7.4717059e+04 </wgt>
<wgt id='1475'> +7.4657451e+04 </wgt>
<wgt id='1476'> +7.4589470e+04 </wgt>
<wgt id='1477'> +7.4712917e+04 </wgt>
<wgt id='1478'> +7.4561838e+04 </wgt>
<wgt id='1479'> +7.4752989e+04 </wgt>
<wgt id='1480'> +7.4583264e+04 </wgt>
<wgt id='1481'> +7.4688802e+04 </wgt>
<wgt id='1482'> +7.4301667e+04 </wgt>
<wgt id='1483'> +7.5087980e+04 </wgt>
<wgt id='1484'> +7.9200740e+04 </wgt>
<wgt id='1485'> +7.9249854e+04 </wgt>
<wgt id='1486'> +8.0157625e+04 </wgt>
<wgt id='1487'> +7.7674870e+04 </wgt>
<wgt id='1488'> +7.7992722e+04 </wgt>
<wgt id='1489'> +7.9187738e+04 </wgt>
<wgt id='1490'> +7.7160516e+04 </wgt>
<wgt id='1491'> +7.9876799e+04 </wgt>
<wgt id='1492'> +7.6588579e+04 </wgt>
<wgt id='1493'> +7.9633223e+04 </wgt>
<wgt id='1494'> +7.8942114e+04 </wgt>
<wgt id='1495'> +7.7496247e+04 </wgt>
<wgt id='1496'> +7.8344421e+04 </wgt>
<wgt id='1497'> +7.8921304e+04 </wgt>
<wgt id='1498'> +8.0379469e+04 </wgt>
<wgt id='1499'> +7.9624497e+04 </wgt>
<wgt id='1500'> +7.8420596e+04 </wgt>
<wgt id='1501'> +7.8657596e+04 </wgt>
<wgt id='1502'> +7.9963580e+04 </wgt>
<wgt id='1503'> +7.8698286e+04 </wgt>
<wgt id='1504'> +7.9377339e+04 </wgt>
<wgt id='1505'> +7.9795507e+04 </wgt>
<wgt id='1506'> +7.9814058e+04 </wgt>
<wgt id='1507'> +7.8304330e+04 </wgt>
<wgt id='1508'> +7.6265455e+04 </wgt>
<wgt id='1509'> +7.8013916e+04 </wgt>
<wgt id='1510'> +7.9934019e+04 </wgt>
<wgt id='1511'> +7.9573968e+04 </wgt>
<wgt id='1512'> +7.8563960e+04 </wgt>
<wgt id='1513'> +7.9493537e+04 </wgt>
<wgt id='1514'> +7.8971911e+04 </wgt>
<wgt id='1515'> +7.8979504e+04 </wgt>
<wgt id='1516'> +7.7303033e+04 </wgt>
<wgt id='1517'> +8.0019995e+04 </wgt>
<wgt id='1518'> +7.8950005e+04 </wgt>
<wgt id='1519'> +7.9119750e+04 </wgt>
<wgt id='1520'> +7.9578742e+04 </wgt>
<wgt id='1521'> +7.7125650e+04 </wgt>
<wgt id='1522'> +7.9863409e+04 </wgt>
<wgt id='1523'> +7.9805426e+04 </wgt>
<wgt id='1524'> +7.8835687e+04 </wgt>
<wgt id='1525'> +7.9379127e+04 </wgt>
<wgt id='1526'> +7.9539846e+04 </wgt>
<wgt id='1527'> +7.9373457e+04 </wgt>
<wgt id='1528'> +8.0104424e+04 </wgt>
<wgt id='1529'> +8.0348645e+04 </wgt>
<wgt id='1530'> +7.9688494e+04 </wgt>
<wgt id='1531'> +7.9008071e+04 </wgt>
<wgt id='1532'> +7.7465896e+04 </wgt>
<wgt id='1533'> +7.9747794e+04 </wgt>
<wgt id='1534'> +8.0034750e+04 </wgt>
<wgt id='1535'> +7.8299734e+04 </wgt>
<wgt id='1536'> +8.0245797e+04 </wgt>
<wgt id='1537'> +7.8637636e+04 </wgt>
<wgt id='1538'> +8.0748972e+04 </wgt>
<wgt id='1539'> +7.9355208e+04 </wgt>
<wgt id='1540'> +8.0480579e+04 </wgt>
<wgt id='1541'> +8.0671379e+04 </wgt>
<wgt id='1542'> +7.9677743e+04 </wgt>
<wgt id='1543'> +8.0109203e+04 </wgt>
<wgt id='1544'> +8.0803074e+04 </wgt>
<wgt id='1545'> +7.9307324e+04 </wgt>
<wgt id='1546'> +7.9857310e+04 </wgt>
<wgt id='1547'> +8.0388474e+04 </wgt>
<wgt id='1548'> +7.8584207e+04 </wgt>
<wgt id='1549'> +8.0334496e+04 </wgt>
<wgt id='1550'> +8.0286513e+04 </wgt>
<wgt id='1551'> +8.1237806e+04 </wgt>
<wgt id='1552'> +7.9606608e+04 </wgt>
<wgt id='1553'> +8.1315761e+04 </wgt>
<wgt id='1554'> +7.7541041e+04 </wgt>
<wgt id='1555'> +7.8983704e+04 </wgt>
<wgt id='1556'> +7.9057367e+04 </wgt>
<wgt id='1557'> +7.8049566e+04 </wgt>
<wgt id='1558'> +8.0167616e+04 </wgt>
<wgt id='1559'> +8.0119939e+04 </wgt>
<wgt id='1560'> +7.8700164e+04 </wgt>
<wgt id='1561'> +7.9554237e+04 </wgt>
<wgt id='1562'> +7.9418264e+04 </wgt>
<wgt id='1563'> +7.8712015e+04 </wgt>
<wgt id='1564'> +7.8333097e+04 </wgt>
<wgt id='1565'> +7.8038645e+04 </wgt>
<wgt id='1566'> +7.9116459e+04 </wgt>
<wgt id='1567'> +8.0110890e+04 </wgt>
<wgt id='1568'> +7.9771743e+04 </wgt>
<wgt id='1569'> +8.0109407e+04 </wgt>
<wgt id='1570'> +8.0858327e+04 </wgt>
<wgt id='1571'> +8.0168021e+04 </wgt>
<wgt id='1572'> +7.8659879e+04 </wgt>
<wgt id='1573'> +8.0077670e+04 </wgt>
<wgt id='1574'> +7.8467353e+04 </wgt>
<wgt id='1575'> +7.6761865e+04 </wgt>
<wgt id='1576'> +8.0749414e+04 </wgt>
<wgt id='1577'> +7.6896343e+04 </wgt>
<wgt id='1578'> +7.8262254e+04 </wgt>
<wgt id='1579'> +7.8907505e+04 </wgt>
<wgt id='1580'> +8.0669758e+04 </wgt>
<wgt id='1581'> +7.9752048e+04 </wgt>
<wgt id='1582'> +7.8846618e+04 </wgt>
<wgt id='1583'> +7.8547193e+04 </wgt>
<wgt id='1584'> +7.7364040e+04 </wgt>
<wgt id='1585'> +7.5901184e+04 </wgt>
<wgt id='1586'> +7.0490764e+04 </wgt>
<wgt id='1587'> +7.3523142e+04 </wgt>
<wgt id='1588'> +7.4301667e+04 </wgt>
<wgt id='1589'> +7.4391577e+04 </wgt>
<wgt id='1590'> +7.4695708e+04 </wgt>
<wgt id='1591'> +7.5087980e+04 </wgt>
<wgt id='1592'> +7.5513979e+04 </wgt>
<wgt id='1593'> +7.6917481e+04 </wgt>
<wgt id='1594'> +7.6941750e+04 </wgt>
<wgt id='1595'> +7.7444683e+04 </wgt>
<wgt id='1596'> +7.6975055e+04 </wgt>
<wgt id='1597'> +7.6634957e+04 </wgt>
<wgt id='1598'> +7.5759427e+04 </wgt>
<wgt id='1599'> +7.7939648e+04 </wgt>
<wgt id='1600'> +7.5742793e+04 </wgt>
<wgt id='1601'> +7.7994768e+04 </wgt>
<wgt id='1602'> +7.6813174e+04 </wgt>
<wgt id='1603'> +7.7212416e+04 </wgt>
<wgt id='1604'> +7.7578414e+04 </wgt>
<wgt id='1605'> +7.6467901e+04 </wgt>
<wgt id='1606'> +7.6187767e+04 </wgt>
<wgt id='1607'> +7.7228769e+04 </wgt>
<wgt id='1608'> +7.5792812e+04 </wgt>
<wgt id='1609'> +7.7559856e+04 </wgt>
<wgt id='1610'> +7.6510392e+04 </wgt>
<wgt id='1611'> +7.7163081e+04 </wgt>
<wgt id='1612'> +7.7578678e+04 </wgt>
<wgt id='1613'> +7.5575739e+04 </wgt>
<wgt id='1614'> +7.6546469e+04 </wgt>
<wgt id='1615'> +7.7575504e+04 </wgt>
<wgt id='1616'> +7.6409907e+04 </wgt>
<wgt id='1617'> +7.6955672e+04 </wgt>
<wgt id='1618'> +7.7078048e+04 </wgt>
<wgt id='1619'> +7.6491165e+04 </wgt>
<wgt id='1620'> +7.7734381e+04 </wgt>
<wgt id='1621'> +7.6339960e+04 </wgt>
<wgt id='1622'> +7.7809737e+04 </wgt>
<wgt id='1623'> +7.6135403e+04 </wgt>
<wgt id='1624'> +7.7236839e+04 </wgt>
<wgt id='1625'> +7.5501738e+04 </wgt>
<wgt id='1626'> +7.6331257e+04 </wgt>
<wgt id='1627'> +7.7390073e+04 </wgt>
<wgt id='1628'> +7.6953311e+04 </wgt>
<wgt id='1629'> +7.7404707e+04 </wgt>
<wgt id='1630'> +7.6605656e+04 </wgt>
<wgt id='1631'> +7.6893275e+04 </wgt>
<wgt id='1632'> +7.6252410e+04 </wgt>
<wgt id='1633'> +7.7668211e+04 </wgt>
<wgt id='1634'> +7.7767230e+04 </wgt>
<wgt id='1635'> +7.6295672e+04 </wgt>
<wgt id='1636'> +7.7461406e+04 </wgt>
<wgt id='1637'> +7.7370834e+04 </wgt>
<wgt id='1638'> +7.6959933e+04 </wgt>
<wgt id='1639'> +7.6875571e+04 </wgt>
<wgt id='1640'> +7.7566102e+04 </wgt>
<wgt id='1641'> +7.6406726e+04 </wgt>
<wgt id='1642'> +7.6656894e+04 </wgt>
<wgt id='1643'> +7.7367396e+04 </wgt>
<wgt id='1644'> +7.7439503e+04 </wgt>
<wgt id='1645'> +7.6294130e+04 </wgt>
<wgt id='1646'> +7.6840771e+04 </wgt>
<wgt id='1647'> +7.7770355e+04 </wgt>
<wgt id='1648'> +7.7445458e+04 </wgt>
<wgt id='1649'> +7.7516965e+04 </wgt>
<wgt id='1650'> +7.8908722e+04 </wgt>
<wgt id='1651'> +7.5083339e+04 </wgt>
<wgt id='1652'> +7.6498430e+04 </wgt>
<wgt id='1653'> +7.6708315e+04 </wgt>
<wgt id='1654'> +7.7131788e+04 </wgt>
<wgt id='1655'> +7.7350875e+04 </wgt>
<wgt id='1656'> +7.7954736e+04 </wgt>
<wgt id='1657'> +7.8434962e+04 </wgt>
<wgt id='1658'> +7.7806023e+04 </wgt>
<wgt id='1659'> +7.7702116e+04 </wgt>
<wgt id='1660'> +7.8126029e+04 </wgt>
<wgt id='1661'> +7.8313395e+04 </wgt>
<wgt id='1662'> +7.7539636e+04 </wgt>
<wgt id='1663'> +7.7878755e+04 </wgt>
<wgt id='1664'> +7.7600943e+04 </wgt>
<wgt id='1665'> +7.7395907e+04 </wgt>
<wgt id='1666'> +7.8041022e+04 </wgt>
<wgt id='1667'> +7.7590654e+04 </wgt>
<wgt id='1668'> +7.8204943e+04 </wgt>
<wgt id='1669'> +7.8261640e+04 </wgt>
<wgt id='1670'> +7.7402277e+04 </wgt>
<wgt id='1671'> +7.7881412e+04 </wgt>
<wgt id='1672'> +7.8138359e+04 </wgt>
<wgt id='1673'> +7.9032136e+04 </wgt>
<wgt id='1674'> +7.7338270e+04 </wgt>
<wgt id='1675'> +7.9002732e+04 </wgt>
<wgt id='1676'> +7.7296448e+04 </wgt>
<wgt id='1677'> +7.7849235e+04 </wgt>
<wgt id='1678'> +7.8140801e+04 </wgt>
<wgt id='1679'> +7.7980572e+04 </wgt>
<wgt id='1680'> +7.8830426e+04 </wgt>
<wgt id='1681'> +7.7741175e+04 </wgt>
<wgt id='1682'> +7.7808742e+04 </wgt>
<wgt id='1683'> +7.7924845e+04 </wgt>
<wgt id='1684'> +7.8123441e+04 </wgt>
<wgt id='1685'> +7.9154318e+04 </wgt>
<wgt id='1686'> +7.6863966e+04 </wgt>
<wgt id='1687'> +7.8453152e+04 </wgt>
<wgt id='1688'> +7.7286330e+04 </wgt>
<wgt id='1689'> +7.7273751e+04 </wgt>
<wgt id='1690'> +7.9049148e+04 </wgt>
<wgt id='1691'> +7.7910710e+04 </wgt>
<wgt id='1692'> +7.8277667e+04 </wgt>
<wgt id='1693'> +7.8272224e+04 </wgt>
<wgt id='1694'> +7.8342770e+04 </wgt>
<wgt id='1695'> +7.7398072e+04 </wgt>
<wgt id='1696'> +7.9370811e+04 </wgt>
<wgt id='1697'> +7.8770400e+04 </wgt>
<wgt id='1698'> +7.7390866e+04 </wgt>
<wgt id='1699'> +7.7814489e+04 </wgt>
<wgt id='1700'> +7.8063201e+04 </wgt>
<wgt id='1701'> +7.7542997e+04 </wgt>
<wgt id='1702'> +7.8642816e+04 </wgt>
<wgt id='1703'> +7.8023596e+04 </wgt>
<wgt id='1704'> +7.8388623e+04 </wgt>
<wgt id='1705'> +7.7476012e+04 </wgt>
<wgt id='1706'> +7.8745135e+04 </wgt>
<wgt id='1707'> +7.6391424e+04 </wgt>
<wgt id='1708'> +7.9024475e+04 </wgt>
<wgt id='1709'> +7.7624679e+04 </wgt>
<wgt id='1710'> +7.8665824e+04 </wgt>
<wgt id='1711'> +7.8035032e+04 </wgt>
<wgt id='1712'> +7.8045515e+04 </wgt>
<wgt id='1713'> +8.0042209e+04 </wgt>
<wgt id='1714'> +7.5948243e+04 </wgt>
<wgt id='1715'> +7.6038728e+04 </wgt>
<wgt id='1716'> +7.7898925e+04 </wgt>
<wgt id='1717'> +7.3868453e+04 </wgt>
<wgt id='1718'> +7.4041400e+04 </wgt>
<wgt id='1719'> +7.3646695e+04 </wgt>
<wgt id='1720'> +7.3935365e+04 </wgt>
<wgt id='1721'> +7.3807333e+04 </wgt>
<wgt id='1722'> +7.3846130e+04 </wgt>
<wgt id='1723'> +7.3905030e+04 </wgt>
<wgt id='1724'> +7.4100245e+04 </wgt>
<wgt id='1725'> +7.3679931e+04 </wgt>
<wgt id='1726'> +7.3732158e+04 </wgt>
<wgt id='1727'> +7.4009121e+04 </wgt>
<wgt id='1728'> +7.3701105e+04 </wgt>
<wgt id='1729'> +7.4031648e+04 </wgt>
<wgt id='1730'> +7.3641751e+04 </wgt>
<wgt id='1731'> +7.4027283e+04 </wgt>
<wgt id='1732'> +7.4509592e+04 </wgt>
<wgt id='1733'> +7.4509592e+04 </wgt>
<wgt id='1734'> +7.3357104e+04 </wgt>
<wgt id='1735'> +7.4212515e+04 </wgt>
<wgt id='1736'> +7.3470058e+04 </wgt>
<wgt id='1737'> +7.4413037e+04 </wgt>
<wgt id='1738'> +7.4048906e+04 </wgt>
<wgt id='1739'> +7.3513071e+04 </wgt>
<wgt id='1740'> +7.3777561e+04 </wgt>
<wgt id='1741'> +7.4083756e+04 </wgt>
<wgt id='1742'> +7.3860838e+04 </wgt>
<wgt id='1743'> +7.3866958e+04 </wgt>
<wgt id='1744'> +7.3764894e+04 </wgt>
<wgt id='1745'> +7.4148298e+04 </wgt>
<wgt id='1746'> +7.3361823e+04 </wgt>
<wgt id='1747'> +7.4126618e+04 </wgt>
<wgt id='1748'> +7.4047463e+04 </wgt>
<wgt id='1749'> +7.3207238e+04 </wgt>
<wgt id='1750'> +7.3931641e+04 </wgt>
<wgt id='1751'> +7.3798263e+04 </wgt>
<wgt id='1752'> +7.3816928e+04 </wgt>
<wgt id='1753'> +7.3937802e+04 </wgt>
<wgt id='1754'> +7.3683000e+04 </wgt>
<wgt id='1755'> +7.3959117e+04 </wgt>
<wgt id='1756'> +7.3452942e+04 </wgt>
<wgt id='1757'> +7.4899093e+04 </wgt>
<wgt id='1758'> +7.4082249e+04 </wgt>
<wgt id='1759'> +7.3349334e+04 </wgt>
<wgt id='1760'> +7.4082650e+04 </wgt>
<wgt id='1761'> +7.3707432e+04 </wgt>
<wgt id='1762'> +7.3850311e+04 </wgt>
<wgt id='1763'> +7.4194452e+04 </wgt>
<wgt id='1764'> +7.3770878e+04 </wgt>
<wgt id='1765'> +7.4282509e+04 </wgt>
<wgt id='1766'> +7.3875329e+04 </wgt>
<wgt id='1767'> +7.3948079e+04 </wgt>
<wgt id='1768'> +7.4030794e+04 </wgt>
<wgt id='1769'> +7.3761101e+04 </wgt>
<wgt id='1770'> +7.3618091e+04 </wgt>
<wgt id='1771'> +7.4313399e+04 </wgt>
<wgt id='1772'> +7.4034531e+04 </wgt>
<wgt id='1773'> +7.3486462e+04 </wgt>
<wgt id='1774'> +7.3713915e+04 </wgt>
<wgt id='1775'> +7.3950740e+04 </wgt>
<wgt id='1776'> +7.4023176e+04 </wgt>
<wgt id='1777'> +7.3807250e+04 </wgt>
<wgt id='1778'> +7.4007796e+04 </wgt>
<wgt id='1779'> +7.4061832e+04 </wgt>
<wgt id='1780'> +7.3934057e+04 </wgt>
<wgt id='1781'> +7.4196196e+04 </wgt>
<wgt id='1782'> +7.3868453e+04 </wgt>
<wgt id='1783'> +7.3881864e+04 </wgt>
<wgt id='1784'> +7.4841595e+04 </wgt>
<wgt id='1785'> +7.4714690e+04 </wgt>
<wgt id='1786'> +7.3789088e+04 </wgt>
<wgt id='1787'> +7.4785454e+04 </wgt>
<wgt id='1788'> +7.5082126e+04 </wgt>
<wgt id='1789'> +7.4902153e+04 </wgt>
<wgt id='1790'> +7.4326943e+04 </wgt>
<wgt id='1791'> +7.4736464e+04 </wgt>
<wgt id='1792'> +7.4661878e+04 </wgt>
<wgt id='1793'> +7.4907231e+04 </wgt>
<wgt id='1794'> +7.5212688e+04 </wgt>
<wgt id='1795'> +7.3896765e+04 </wgt>
<wgt id='1796'> +7.4942997e+04 </wgt>
<wgt id='1797'> +7.5145864e+04 </wgt>
<wgt id='1798'> +7.4752184e+04 </wgt>
<wgt id='1799'> +7.5584608e+04 </wgt>
<wgt id='1800'> +7.5034341e+04 </wgt>
<wgt id='1801'> +7.5202175e+04 </wgt>
<wgt id='1802'> +7.4788258e+04 </wgt>
<wgt id='1803'> +7.5092329e+04 </wgt>
<wgt id='1804'> +7.3813373e+04 </wgt>
<wgt id='1805'> +7.4827549e+04 </wgt>
<wgt id='1806'> +7.4679567e+04 </wgt>
<wgt id='1807'> +7.4880918e+04 </wgt>
<wgt id='1808'> +7.4866727e+04 </wgt>
<wgt id='1809'> +7.4114170e+04 </wgt>
<wgt id='1810'> +7.4846700e+04 </wgt>
<wgt id='1811'> +7.4673920e+04 </wgt>
<wgt id='1812'> +7.4861342e+04 </wgt>
<wgt id='1813'> +7.4698709e+04 </wgt>
<wgt id='1814'> +7.4764353e+04 </wgt>
<wgt id='1815'> +7.4862787e+04 </wgt>
<wgt id='1816'> +7.4826554e+04 </wgt>
<wgt id='1817'> +7.4649291e+04 </wgt>
<wgt id='1818'> +7.4833363e+04 </wgt>
<wgt id='1819'> +7.4632772e+04 </wgt>
<wgt id='1820'> +7.4751573e+04 </wgt>
<wgt id='1821'> +7.4822293e+04 </wgt>
<wgt id='1822'> +7.4638892e+04 </wgt>
<wgt id='1823'> +7.4713370e+04 </wgt>
<wgt id='1824'> +7.4913885e+04 </wgt>
<wgt id='1825'> +7.4297325e+04 </wgt>
<wgt id='1826'> +7.5578011e+04 </wgt>
<wgt id='1827'> +8.5435474e+04 </wgt>
<wgt id='1828'> +8.5561111e+04 </wgt>
<wgt id='1829'> +8.5345609e+04 </wgt>
<wgt id='1830'> +8.5685815e+04 </wgt>
<wgt id='1831'> +8.5219501e+04 </wgt>
<wgt id='1832'> +8.5241756e+04 </wgt>
<wgt id='1833'> +8.5663782e+04 </wgt>
<wgt id='1834'> +8.5023985e+04 </wgt>
<wgt id='1835'> +8.5862219e+04 </wgt>
<wgt id='1836'> +8.5865458e+04 </wgt>
<wgt id='1837'> +8.5014361e+04 </wgt>
<wgt id='1838'> +8.5859196e+04 </wgt>
<wgt id='1839'> +8.5042082e+04 </wgt>
<wgt id='1840'> +8.5348473e+04 </wgt>
<wgt id='1841'> +8.5572275e+04 </wgt>
<wgt id='1842'> +8.5624635e+04 </wgt>
<wgt id='1843'> +8.5848267e+04 </wgt>
<wgt id='1844'> +8.5691638e+04 </wgt>
<wgt id='1845'> +8.5190012e+04 </wgt>
<wgt id='1846'> +8.5278805e+04 </wgt>
<wgt id='1847'> +8.5607976e+04 </wgt>
<wgt id='1848'> +8.4896527e+04 </wgt>
<wgt id='1849'> +8.5928738e+04 </wgt>
<wgt id='1850'> +8.5218079e+04 </wgt>
<wgt id='1851'> +8.5497386e+04 </wgt>
<wgt id='1852'> +8.5599866e+04 </wgt>
<wgt id='1853'> +8.4954506e+04 </wgt>
<wgt id='1854'> +8.5239058e+04 </wgt>
<wgt id='1855'> +8.5571973e+04 </wgt>
<wgt id='1856'> +7.4445745e+04 </wgt>
<wgt id='1857'> +7.4432132e+04 </wgt>
<wgt id='1858'> +7.4453614e+04 </wgt>
<wgt id='1859'> +7.4401370e+04 </wgt>
<wgt id='1860'> +7.4445828e+04 </wgt>
<wgt id='1861'> +7.4421453e+04 </wgt>
<wgt id='1862'> +7.4256536e+04 </wgt>
<wgt id='1863'> +7.4331442e+04 </wgt>
<wgt id='1864'> +7.4228241e+04 </wgt>
<wgt id='1865'> +7.4248806e+04 </wgt>
<wgt id='1866'> +7.4725516e+04 </wgt>
<wgt id='1867'> +7.4403958e+04 </wgt>
<wgt id='1868'> +7.4406319e+04 </wgt>
<wgt id='1869'> +7.4493562e+04 </wgt>
<wgt id='1870'> +7.4379176e+04 </wgt>
<wgt id='1871'> +7.4436012e+04 </wgt>
<wgt id='1872'> +7.4310338e+04 </wgt>
<wgt id='1873'> +7.4396303e+04 </wgt>
<wgt id='1874'> +7.4516529e+04 </wgt>
<wgt id='1875'> +7.4567476e+04 </wgt>
<wgt id='1876'> +7.4202622e+04 </wgt>
<wgt id='1877'> +7.4267979e+04 </wgt>
<wgt id='1878'> +7.4383503e+04 </wgt>
<wgt id='1879'> +7.4648180e+04 </wgt>
<wgt id='1880'> +7.4606614e+04 </wgt>
<wgt id='1881'> +7.4675063e+04 </wgt>
<wgt id='1882'> +7.4463524e+04 </wgt>
<wgt id='1883'> +7.4445510e+04 </wgt>
<wgt id='1884'> +7.4473710e+04 </wgt>
<wgt id='1885'> +7.3781720e+04 </wgt>
<wgt id='1886'> +6.8036155e+04 </wgt>
<wgt id='1887'> +7.5458617e+04 </wgt>
<wgt id='1888'> +7.1011097e+04 </wgt>
<wgt id='1889'> +8.4765532e+04 </wgt>
</rwgt>
</event>
<event npLO=" -1 " npNLO=" 0 ">
 5      1 +7.4519530e+04 2.98322060e+01 7.55820760e-03 1.20239050e-01
       -2 -1    0    0    0  501 +0.0000000000e+00 +0.0000000000e+00 +3.7876652072e+01 3.7876652072e+01 0.0000000000e+00 0.0000e+00 1.0000e+00
        3 -1    0    0  501    0 +0.0000000000e+00 +0.0000000000e+00 -4.2890854579e+01 4.2890854579e+01 0.0000000000e+00 0.0000e+00 -1.0000e+00
      -24  2    1    2    0    0 +0.0000000000e+00 +0.0000000000e+00 -5.0142025066e+00 8.0767506651e+01 8.0611710712e+01 0.0000e+00 0.0000e+00
       13  1    3    3    0    0 +3.0821948103e+01 -6.8766292380e+00 -2.7601093806e+01 4.1941636756e+01 0.0000000000e+00 0.0000e+00 -1.0000e+00
      -14  1    3    3    0    0 -3.0821948103e+01 +6.8766292380e+00 +2.2586891299e+01 3.8825869895e+01 0.0000000000e+00 0.0000e+00 1.0000e+00
#aMCatNLO 1  0  0  1  2 0.72794908E+01 0.00000000E+00 -9  5  0 0.00000000E+00 0.00000000E+00 0.00000000E+00 0.00000000E+00 0.00000000E+00
<rwgt>
<wgt id='1001'> +7.4519530e+04 </wgt>
<wgt id='1002'> +7.0972336e+04 </wgt>
<wgt id='1003'> +7.8938894e+04 </wgt>
<wgt id='1004'> +8.3467537e+04 </wgt>
<wgt id='1005'> +7.9523467e+04 </wgt>
<wgt id='1006'> +8.8381357e+04 </wgt>
<wgt id='1007'> +6.4653307e+04 </wgt>
<wgt id='1008'> +6.1554156e+04 </wgt>
<wgt id='1009'> +6.8514464e+04 </wgt>
<wgt id='1010'> +7.4519530e+04 </wgt>
<wgt id='1011'> +7.4576767e+04 </wgt>
<wgt id='1012'> +7.4742246e+04 </wgt>
<wgt id='1013'> +7.5531445e+04 </wgt>
<wgt id='1014'> +7.3916066e+04 </wgt>
<wgt id='1015'> +7.5214488e+04 </wgt>
<wgt id='1016'> +7.4420999e+04 </wgt>
<wgt id='1017'> +7.4605248e+04 </wgt>
<wgt id='1018'> +7.4926794e+04 </wgt>
<wgt id='1019'> +7.4235055e+04 </wgt>
<wgt id='1020'> +7.5177920e+04 </wgt>
<wgt id='1021'> +7.4923040e+04 </wgt>
<wgt id='1022'> +7.3783917e+04 </wgt>
<wgt id='1023'> +7.4351420e+04 </wgt>
<wgt id='1024'> +7.4186202e+04 </wgt>
<wgt id='1025'> +7.3153702e+04 </wgt>
<wgt id='1026'> +7.5118304e+04 </wgt>
<wgt id='1027'> +7.4727612e+04 </wgt>
<wgt id='1028'> +7.4838618e+04 </wgt>
<wgt id='1029'> +7.3481088e+04 </wgt>
<wgt id='1030'> +7.4463048e+04 </wgt>
<wgt id='1031'> +7.4668514e+04 </wgt>
<wgt id='1032'> +7.4432418e+04 </wgt>
<wgt id='1033'> +7.4646266e+04 </wgt>
<wgt id='1034'> +7.5002828e+04 </wgt>
<wgt id='1035'> +7.5299835e+04 </wgt>
<wgt id='1036'> +7.4531806e+04 </wgt>
<wgt id='1037'> +7.4400203e+04 </wgt>
<wgt id='1038'> +7.4289833e+04 </wgt>
<wgt id='1039'> +7.4860125e+04 </wgt>
<wgt id='1040'> +7.4705515e+04 </wgt>
<wgt id='1041'> +7.4687145e+04 </wgt>
<wgt id='1042'> +7.5108093e+04 </wgt>
<wgt id='1043'> +7.3925511e+04 </wgt>
<wgt id='1044'> +7.4533527e+04 </wgt>
<wgt id='1045'> +7.4612335e+04 </wgt>
<wgt id='1046'> +7.4445869e+04 </wgt>
<wgt id='1047'> +7.4890272e+04 </wgt>
<wgt id='1048'> +7.4671979e+04 </wgt>
<wgt id='1049'> +7.4509631e+04 </wgt>
<wgt id='1050'> +7.4824003e+04 </wgt>
<wgt id='1051'> +7.4746248e+04 </wgt>
<wgt id='1052'> +7.4623866e+04 </wgt>
<wgt id='1053'> +7.4162038e+04 </wgt>
<wgt id='1054'> +7.4435072e+04 </wgt>
<wgt id='1055'> +7.4669174e+04 </wgt>
<wgt id='1056'> +7.4538518e+04 </wgt>
<wgt id='1057'> +7.4561017e+04 </wgt>
<wgt id='1058'> +7.4478954e+04 </wgt>
<wgt id='1059'> +7.4498155e+04 </wgt>
<wgt id='1060'> +7.4389674e+04 </wgt>
<wgt id='1061'> +7.4525738e+04 </wgt>
<wgt id='1062'> +7.4731694e+04 </wgt>
<wgt id='1063'> +7.4318460e+04 </wgt>
<wgt id='1064'> +7.4454913e+04 </wgt>
<wgt id='1065'> +7.4399550e+04 </wgt>
<wgt id='1066'> +7.4861814e+04 </wgt>
<wgt id='1067'> +7.4551045e+04 </wgt>
<wgt id='1068'> +7.4466180e+04 </wgt>
<wgt id='1069'> +7.4666522e+04 </wgt>
<wgt id='1070'> +7.4520630e+04 </wgt>
<wgt id='1071'> +7.4447867e+04 </wgt>
<wgt id='1072'> +7.4670455e+04 </wgt>
<wgt id='1073'> +7.4533678e+04 </wgt>
<wgt id='1074'> +7.4538400e+04 </wgt>
<wgt id='1075'> +7.4612057e+04 </wgt>
<wgt id='1076'> +7.4568474e+04 </wgt>
<wgt id='1077'> +7.4531547e+04 </wgt>
<wgt id='1078'> +7.4490941e+04 </wgt>
<wgt id='1079'> +7.4457740e+04 </wgt>
<wgt id='1080'> +7.4592585e+04 </wgt>
<wgt id='1081'> +7.4569542e+04 </wgt>
<wgt id='1082'> +7.4565055e+04 </wgt>
<wgt id='1083'> +7.4541352e+04 </wgt>
<wgt id='1084'> +7.4540317e+04 </wgt>
<wgt id='1085'> +7.4542311e+04 </wgt>
<wgt id='1086'> +7.4523533e+04 </wgt>
<wgt id='1087'> +7.4525014e+04 </wgt>
<wgt id='1088'> +7.4492217e+04 </wgt>
<wgt id='1089'> +7.4472503e+04 </wgt>
<wgt id='1090'> +7.4532502e+04 </wgt>
<wgt id='1091'> +7.4516771e+04 </wgt>
<wgt id='1092'> +7.4572999e+04 </wgt>
<wgt id='1093'> +7.4533436e+04 </wgt>
<wgt id='1094'> +7.4498773e+04 </wgt>
<wgt id='1095'> +7.4464748e+04 </wgt>
<wgt id='1096'> +7.4543163e+04 </wgt>
<wgt id='1097'> +7.4514546e+04 </wgt>
<wgt id='1098'> +7.4510144e+04 </wgt>
<wgt id='1099'> +7.4532546e+04 </wgt>
<wgt id='1100'> +7.4509335e+04 </wgt>
<wgt id='1101'> +7.4532434e+04 </wgt>
<wgt id='1102'> +7.4524214e+04 </wgt>
<wgt id='1103'> +7.4468177e+04 </wgt>
<wgt id='1104'> +7.4545951e+04 </wgt>
<wgt id='1105'> +7.4483418e+04 </wgt>
<wgt id='1106'> +7.4549708e+04 </wgt>
<wgt id='1107'> +7.4550690e+04 </wgt>
<wgt id='1108'> +7.4500959e+04 </wgt>
<wgt id='1109'> +7.4548715e+04 </wgt>
<wgt id='1110'> +7.4519531e+04 </wgt>
<wgt id='1111'> +7.3187331e+04 </wgt>
<wgt id='1112'> +7.5611930e+04 </wgt>
<wgt id='1113'> +7.4519531e+04 </wgt>
<wgt id='1114'> +6.5265969e+04 </wgt>
<wgt id='1115'> +7.3578603e+04 </wgt>
<wgt id='1116'> +7.2040404e+04 </wgt>
<wgt id='1117'> +7.4779942e+04 </wgt>
<wgt id='1118'> +7.4799134e+04 </wgt>
<wgt id='1119'> +6.8506396e+04 </wgt>
<wgt id='1120'> +7.1984456e+04 </wgt>
<wgt id='1121'> +7.9284002e+04 </wgt>
<wgt id='1122'> +7.3166275e+04 </wgt>
<wgt id='1123'> +7.1321172e+04 </wgt>
<wgt id='1124'> +7.4019138e+04 </wgt>
<wgt id='1125'> +7.6807669e+04 </wgt>
<wgt id='1126'> +7.6711933e+04 </wgt>
<wgt id='1127'> +7.6531132e+04 </wgt>
<wgt id='1128'> +7.1608262e+04 </wgt>
<wgt id='1129'> +7.4739815e+04 </wgt>
<wgt id='1130'> +6.7506717e+04 </wgt>
<wgt id='1131'> +7.8347962e+04 </wgt>
<wgt id='1132'> +7.6990211e+04 </wgt>
<wgt id='1133'> +7.8663489e+04 </wgt>
<wgt id='1134'> +7.3011118e+04 </wgt>
<wgt id='1135'> +7.5319252e+04 </wgt>
<wgt id='1136'> +7.2521685e+04 </wgt>
<wgt id='1137'> +7.8558878e+04 </wgt>
<wgt id='1138'> +7.8561349e+04 </wgt>
<wgt id='1139'> +7.5684113e+04 </wgt>
<wgt id='1140'> +7.0410823e+04 </wgt>
<wgt id='1141'> +7.5781051e+04 </wgt>
<wgt id='1142'> +7.5560753e+04 </wgt>
<wgt id='1143'> +6.8129171e+04 </wgt>
<wgt id='1144'> +7.0137921e+04 </wgt>
<wgt id='1145'> +7.3598820e+04 </wgt>
<wgt id='1146'> +7.4226807e+04 </wgt>
<wgt id='1147'> +8.0533136e+04 </wgt>
<wgt id='1148'> +7.4170770e+04 </wgt>
<wgt id='1149'> +7.6069967e+04 </wgt>
<wgt id='1150'> +7.7032437e+04 </wgt>
<wgt id='1151'> +7.5373576e+04 </wgt>
<wgt id='1152'> +7.0927805e+04 </wgt>
<wgt id='1153'> +7.4944808e+04 </wgt>
<wgt id='1154'> +7.6640190e+04 </wgt>
<wgt id='1155'> +7.5299326e+04 </wgt>
<wgt id='1156'> +7.2426040e+04 </wgt>
<wgt id='1157'> +7.0790710e+04 </wgt>
<wgt id='1158'> +7.5844454e+04 </wgt>
<wgt id='1159'> +7.5498189e+04 </wgt>
<wgt id='1160'> +7.8663125e+04 </wgt>
<wgt id='1161'> +7.8336023e+04 </wgt>
<wgt id='1162'> +7.2429795e+04 </wgt>
<wgt id='1163'> +7.3658204e+04 </wgt>
<wgt id='1164'> +7.5275227e+04 </wgt>
<wgt id='1165'> +7.2799430e+04 </wgt>
<wgt id='1166'> +7.6043894e+04 </wgt>
<wgt id='1167'> +7.1148763e+04 </wgt>
<wgt id='1168'> +8.0699535e+04 </wgt>
<wgt id='1169'> +7.4655262e+04 </wgt>
<wgt id='1170'> +7.4535366e+04 </wgt>
<wgt id='1171'> +7.6141343e+04 </wgt>
<wgt id='1172'> +7.1718063e+04 </wgt>
<wgt id='1173'> +7.2215628e+04 </wgt>
<wgt id='1174'> +6.8581966e+04 </wgt>
<wgt id='1175'> +7.5409813e+04 </wgt>
<wgt id='1176'> +7.6884565e+04 </wgt>
<wgt id='1177'> +7.9072265e+04 </wgt>
<wgt id='1178'> +7.5695665e+04 </wgt>
<wgt id='1179'> +7.8479446e+04 </wgt>
<wgt id='1180'> +7.5471104e+04 </wgt>
<wgt id='1181'> +6.9163755e+04 </wgt>
<wgt id='1182'> +7.4883830e+04 </wgt>
<wgt id='1183'> +7.3910229e+04 </wgt>
<wgt id='1184'> +7.1222607e+04 </wgt>
<wgt id='1185'> +6.9580771e+04 </wgt>
<wgt id='1186'> +7.4962678e+04 </wgt>
<wgt id='1187'> +7.5607086e+04 </wgt>
<wgt id='1188'> +7.7567636e+04 </wgt>
<wgt id='1189'> +7.6362093e+04 </wgt>
<wgt id='1190'> +7.4316119e+04 </wgt>
<wgt id='1191'> +7.4308899e+04 </wgt>
<wgt id='1192'> +7.6084866e+04 </wgt>
<wgt id='1193'> +7.2096695e+04 </wgt>
<wgt id='1194'> +7.6134118e+04 </wgt>
<wgt id='1195'> +7.4739815e+04 </wgt>
<wgt id='1196'> +7.3679998e+04 </wgt>
<wgt id='1197'> +7.7117893e+04 </wgt>
<wgt id='1198'> +7.3681595e+04 </wgt>
<wgt id='1199'> +7.2215336e+04 </wgt>
<wgt id='1200'> +7.7919192e+04 </wgt>
<wgt id='1201'> +6.7438178e+04 </wgt>
<wgt id='1202'> +7.8311365e+04 </wgt>
<wgt id='1203'> +7.5673894e+04 </wgt>
<wgt id='1204'> +7.9138738e+04 </wgt>
<wgt id='1205'> +7.9456259e+04 </wgt>
<wgt id='1206'> +7.5493333e+04 </wgt>
<wgt id='1207'> +7.0216947e+04 </wgt>
<wgt id='1208'> +7.6111138e+04 </wgt>
<wgt id='1209'> +7.6727042e+04 </wgt>
<wgt id='1210'> +7.1831537e+04 </wgt>
<wgt id='1211'> +7.0225849e+04 </wgt>
<wgt id='1212'> +7.6415408e+04 </wgt>
<wgt id='1213'> +7.4561679e+04 </wgt>
<wgt id='1214'> +7.4588008e+04 </wgt>
<wgt id='1215'> +6.6764258e+04 </wgt>
<wgt id='1216'> +6.8679200e+04 </wgt>
<wgt id='1217'> +6.9996777e+04 </wgt>
<wgt id='1218'> +7.1084921e+04 </wgt>
<wgt id='1219'> +7.3752365e+04 </wgt>
<wgt id='1220'> +7.5293554e+04 </wgt>
<wgt id='1221'> +7.7483949e+04 </wgt>
<wgt id='1222'> +7.8920325e+04 </wgt>
<wgt id='1223'> +7.1702981e+04 </wgt>
<wgt id='1224'> +7.1965773e+04 </wgt>
<wgt id='1225'> +7.1532540e+04 </wgt>
<wgt id='1226'> +7.1567846e+04 </wgt>
<wgt id='1227'> +7.1090459e+04 </wgt>
<wgt id='1228'> +7.1256897e+04 </wgt>
<wgt id='1229'> +7.2109197e+04 </wgt>
<wgt id='1230'> +7.1399962e+04 </wgt>
<wgt id='1231'> +7.1921506e+04 </wgt>
<wgt id='1232'> +7.1543357e+04 </wgt>
<wgt id='1233'> +7.2978661e+04 </wgt>
<wgt id='1234'> +7.1899501e+04 </wgt>
<wgt id='1235'> +7.0982613e+04 </wgt>
<wgt id='1236'> +7.1744025e+04 </wgt>
<wgt id='1237'> +7.0850168e+04 </wgt>
<wgt id='1238'> +7.2658882e+04 </wgt>
<wgt id='1239'> +7.0555813e+04 </wgt>
<wgt id='1240'> +7.1762836e+04 </wgt>
<wgt id='1241'> +7.1205660e+04 </wgt>
<wgt id='1242'> +7.2270298e+04 </wgt>
<wgt id='1243'> +7.2376343e+04 </wgt>
<wgt id='1244'> +7.1153310e+04 </wgt>
<wgt id='1245'> +7.1600746e+04 </wgt>
<wgt id='1246'> +7.1880060e+04 </wgt>
<wgt id='1247'> +7.1698612e+04 </wgt>
<wgt id='1248'> +7.1731786e+04 </wgt>
<wgt id='1249'> +7.1625434e+04 </wgt>
<wgt id='1250'> +7.2202364e+04 </wgt>
<wgt id='1251'> +7.1626869e+04 </wgt>
<wgt id='1252'> +7.2295447e+04 </wgt>
<wgt id='1253'> +7.1268115e+04 </wgt>
<wgt id='1254'> +7.1561857e+04 </wgt>
<wgt id='1255'> +7.1640813e+04 </wgt>
<wgt id='1256'> +7.1770784e+04 </wgt>
<wgt id='1257'> +7.2108301e+04 </wgt>
<wgt id='1258'> +7.2133990e+04 </wgt>
<wgt id='1259'> +7.2002069e+04 </wgt>
<wgt id='1260'> +7.2000354e+04 </wgt>
<wgt id='1261'> +7.1881268e+04 </wgt>
<wgt id='1262'> +7.1656880e+04 </wgt>
<wgt id='1263'> +7.1898291e+04 </wgt>
<wgt id='1264'> +7.1164430e+04 </wgt>
<wgt id='1265'> +7.1688495e+04 </wgt>
<wgt id='1266'> +7.1717912e+04 </wgt>
<wgt id='1267'> +7.1705369e+04 </wgt>
<wgt id='1268'> +7.1829222e+04 </wgt>
<wgt id='1269'> +7.1946277e+04 </wgt>
<wgt id='1270'> +7.1745203e+04 </wgt>
<wgt id='1271'> +7.1751343e+04 </wgt>
<wgt id='1272'> +7.1949822e+04 </wgt>
<wgt id='1273'> +7.1835580e+04 </wgt>
<wgt id='1274'> +7.1721259e+04 </wgt>
<wgt id='1275'> +7.1573664e+04 </wgt>
<wgt id='1276'> +7.1638128e+04 </wgt>
<wgt id='1277'> +7.1721132e+04 </wgt>
<wgt id='1278'> +7.1645216e+04 </wgt>
<wgt id='1279'> +7.1827195e+04 </wgt>
<wgt id='1280'> +7.1726743e+04 </wgt>
<wgt id='1281'> +7.1652451e+04 </wgt>
<wgt id='1282'> +7.1654478e+04 </wgt>
<wgt id='1283'> +7.1697047e+04 </wgt>
<wgt id='1284'> +7.1768223e+04 </wgt>
<wgt id='1285'> +7.1749448e+04 </wgt>
<wgt id='1286'> +7.1686196e+04 </wgt>
<wgt id='1287'> +7.1709065e+04 </wgt>
<wgt id='1288'> +7.1659930e+04 </wgt>
<wgt id='1289'> +7.1723803e+04 </wgt>
<wgt id='1290'> +7.1633427e+04 </wgt>
<wgt id='1291'> +7.1692646e+04 </wgt>
<wgt id='1292'> +7.1631994e+04 </wgt>
<wgt id='1293'> +7.1701947e+04 </wgt>
<wgt id='1294'> +7.1797209e+04 </wgt>
<wgt id='1295'> +7.1614017e+04 </wgt>
<wgt id='1296'> +7.1753074e+04 </wgt>
<wgt id='1297'> +7.1714448e+04 </wgt>
<wgt id='1298'> +7.1731544e+04 </wgt>
<wgt id='1299'> +7.1776621e+04 </wgt>
<wgt id='1300'> +7.1691011e+04 </wgt>
<wgt id='1301'> +7.1695786e+04 </wgt>
<wgt id='1302'> +7.1695926e+04 </wgt>
<wgt id='1303'> +7.1705681e+04 </wgt>
<wgt id='1304'> +7.1731511e+04 </wgt>
<wgt id='1305'> +7.1711573e+04 </wgt>
<wgt id='1306'> +7.1697575e+04 </wgt>
<wgt id='1307'> +7.1726067e+04 </wgt>
<wgt id='1308'> +7.1671741e+04 </wgt>
<wgt id='1309'> +7.1697642e+04 </wgt>
<wgt id='1310'> +7.1716951e+04 </wgt>
<wgt id='1311'> +7.1672067e+04 </wgt>
<wgt id='1312'> +7.1734871e+04 </wgt>
<wgt id='1313'> +7.1640460e+04 </wgt>
<wgt id='1314'> +7.1737394e+04 </wgt>
<wgt id='1315'> +7.1675783e+04 </wgt>
<wgt id='1316'> +7.1744166e+04 </wgt>
<wgt id='1317'> +7.1732375e+04 </wgt>
<wgt id='1318'> +7.1717255e+04 </wgt>
<wgt id='1319'> +7.1767651e+04 </wgt>
<wgt id='1320'> +7.1741175e+04 </wgt>
<wgt id='1321'> +7.1690336e+04 </wgt>
<wgt id='1322'> +7.1660742e+04 </wgt>
<wgt id='1323'> +7.1773262e+04 </wgt>
<wgt id='1324'> +7.0376513e+04 </wgt>
<wgt id='1325'> +7.2670701e+04 </wgt>
<wgt id='1326'> +6.7325396e+04 </wgt>
<wgt id='1327'> +6.3643219e+04 </wgt>
<wgt id='1328'> +7.7425239e+04 </wgt>
<wgt id='1329'> +7.6067840e+04 </wgt>
<wgt id='1330'> +7.6072495e+04 </wgt>
<wgt id='1331'> +7.7911164e+04 </wgt>
<wgt id='1332'> +7.4508938e+04 </wgt>
<wgt id='1333'> +7.5632443e+04 </wgt>
<wgt id='1334'> +7.6968331e+04 </wgt>
<wgt id='1335'> +7.7949474e+04 </wgt>
<wgt id='1336'> +7.6784947e+04 </wgt>
<wgt id='1337'> +7.6238317e+04 </wgt>
<wgt id='1338'> +7.9708735e+04 </wgt>
<wgt id='1339'> +7.9462145e+04 </wgt>
<wgt id='1340'> +7.9545142e+04 </wgt>
<wgt id='1341'> +7.9460162e+04 </wgt>
<wgt id='1342'> +7.5277483e+04 </wgt>
<wgt id='1343'> +7.7125116e+04 </wgt>
<wgt id='1344'> +7.7908009e+04 </wgt>
<wgt id='1345'> +7.9183140e+04 </wgt>
<wgt id='1346'> +8.1413267e+04 </wgt>
<wgt id='1347'> +7.6294552e+04 </wgt>
<wgt id='1348'> +7.7479651e+04 </wgt>
<wgt id='1349'> +7.7660640e+04 </wgt>
<wgt id='1350'> +7.7441584e+04 </wgt>
<wgt id='1351'> +7.7343441e+04 </wgt>
<wgt id='1352'> +7.9042632e+04 </wgt>
<wgt id='1353'> +7.5838312e+04 </wgt>
<wgt id='1354'> +7.6392522e+04 </wgt>
<wgt id='1355'> +7.7010021e+04 </wgt>
<wgt id='1356'> +7.6278727e+04 </wgt>
<wgt id='1357'> +7.9463213e+04 </wgt>
<wgt id='1358'> +7.5428543e+04 </wgt>
<wgt id='1359'> +7.7937654e+04 </wgt>
<wgt id='1360'> +7.4701214e+04 </wgt>
<wgt id='1361'> +7.3611497e+04 </wgt>
<wgt id='1362'> +7.6775335e+04 </wgt>
<wgt id='1363'> +7.6277524e+04 </wgt>
<wgt id='1364'> +7.7977011e+04 </wgt>
<wgt id='1365'> +7.8847325e+04 </wgt>
<wgt id='1366'> +7.5770866e+04 </wgt>
<wgt id='1367'> +7.8131394e+04 </wgt>
<wgt id='1368'> +7.7129370e+04 </wgt>
<wgt id='1369'> +7.7903737e+04 </wgt>
<wgt id='1370'> +7.8377043e+04 </wgt>
<wgt id='1371'> +7.7128005e+04 </wgt>
<wgt id='1372'> +7.3691848e+04 </wgt>
<wgt id='1373'> +7.7491929e+04 </wgt>
<wgt id='1374'> +7.7779762e+04 </wgt>
<wgt id='1375'> +7.5848943e+04 </wgt>
<wgt id='1376'> +7.8843202e+04 </wgt>
<wgt id='1377'> +7.6102596e+04 </wgt>
<wgt id='1378'> +7.9083848e+04 </wgt>
<wgt id='1379'> +7.7008989e+04 </wgt>
<wgt id='1380'> +7.4948974e+04 </wgt>
<wgt id='1381'> +7.4408212e+04 </wgt>
<wgt id='1382'> +8.0591296e+04 </wgt>
<wgt id='1383'> +7.7111081e+04 </wgt>
<wgt id='1384'> +7.6183436e+04 </wgt>
<wgt id='1385'> +8.0288808e+04 </wgt>
<wgt id='1386'> +7.7513040e+04 </wgt>
<wgt id='1387'> +7.5367788e+04 </wgt>
<wgt id='1388'> +7.6296835e+04 </wgt>
<wgt id='1389'> +7.4823373e+04 </wgt>
<wgt id='1390'> +8.4078125e+04 </wgt>
<wgt id='1391'> +8.0822057e+04 </wgt>
<wgt id='1392'> +7.8839758e+04 </wgt>
<wgt id='1393'> +7.7361346e+04 </wgt>
<wgt id='1394'> +7.8847325e+04 </wgt>
<wgt id='1395'> +7.8635168e+04 </wgt>
<wgt id='1396'> +7.5036508e+04 </wgt>
<wgt id='1397'> +7.5761325e+04 </wgt>
<wgt id='1398'> +7.7800541e+04 </wgt>
<wgt id='1399'> +7.6576873e+04 </wgt>
<wgt id='1400'> +7.6067011e+04 </wgt>
<wgt id='1401'> +7.6496851e+04 </wgt>
<wgt id='1402'> +7.5542118e+04 </wgt>
<wgt id='1403'> +7.9234972e+04 </wgt>
<wgt id='1404'> +7.7902004e+04 </wgt>
<wgt id='1405'> +8.0937726e+04 </wgt>
<wgt id='1406'> +7.5353282e+04 </wgt>
<wgt id='1407'> +7.7707219e+04 </wgt>
<wgt id='1408'> +7.6379946e+04 </wgt>
<wgt id='1409'> +7.7170915e+04 </wgt>
<wgt id='1410'> +7.3900463e+04 </wgt>
<wgt id='1411'> +7.9197970e+04 </wgt>
<wgt id='1412'> +7.5611369e+04 </wgt>
<wgt id='1413'> +7.8844329e+04 </wgt>
<wgt id='1414'> +8.1180765e+04 </wgt>
<wgt id='1415'> +8.1665132e+04 </wgt>
<wgt id='1416'> +7.7963488e+04 </wgt>
<wgt id='1417'> +7.7913518e+04 </wgt>
<wgt id='1418'> +7.5198363e+04 </wgt>
<wgt id='1419'> +7.6978025e+04 </wgt>
<wgt id='1420'> +8.0792446e+04 </wgt>
<wgt id='1421'> +7.5774164e+04 </wgt>
<wgt id='1422'> +7.9687637e+04 </wgt>
<wgt id='1423'> +8.2126827e+04 </wgt>
<wgt id='1424'> +7.8691530e+04 </wgt>
<wgt id='1425'> +7.4747527e+04 </wgt>
<wgt id='1426'> +7.6964660e+04 </wgt>
<wgt id='1427'> +7.7660739e+04 </wgt>
<wgt id='1428'> +7.4490369e+04 </wgt>
<wgt id='1429'> +7.7525073e+04 </wgt>
<wgt id='1430'> +7.7882520e+04 </wgt>
<wgt id='1431'> +7.7434919e+04 </wgt>
<wgt id='1432'> +7.6917190e+04 </wgt>
<wgt id='1433'> +7.8151723e+04 </wgt>
<wgt id='1434'> +7.7375555e+04 </wgt>
<wgt id='1435'> +7.7564232e+04 </wgt>
<wgt id='1436'> +7.8689432e+04 </wgt>
<wgt id='1437'> +7.7294729e+04 </wgt>
<wgt id='1438'> +7.7594488e+04 </wgt>
<wgt id='1439'> +7.8350659e+04 </wgt>
<wgt id='1440'> +7.7375585e+04 </wgt>
<wgt id='1441'> +7.7519140e+04 </wgt>
<wgt id='1442'> +7.7673318e+04 </wgt>
<wgt id='1443'> +7.7461774e+04 </wgt>
<wgt id='1444'> +7.6652718e+04 </wgt>
<wgt id='1445'> +7.7468239e+04 </wgt>
<wgt id='1446'> +7.7189722e+04 </wgt>
<wgt id='1447'> +7.7350868e+04 </wgt>
<wgt id='1448'> +7.7624147e+04 </wgt>
<wgt id='1449'> +7.7458273e+04 </wgt>
<wgt id='1450'> +7.7531621e+04 </wgt>
<wgt id='1451'> +7.7471805e+04 </wgt>
<wgt id='1452'> +7.7446877e+04 </wgt>
<wgt id='1453'> +7.7388816e+04 </wgt>
<wgt id='1454'> +7.7628033e+04 </wgt>
<wgt id='1455'> +7.7386479e+04 </wgt>
<wgt id='1456'> +7.7432274e+04 </wgt>
<wgt id='1457'> +7.7359847e+04 </wgt>
<wgt id='1458'> +7.7424605e+04 </wgt>
<wgt id='1459'> +7.7334514e+04 </wgt>
<wgt id='1460'> +7.7391120e+04 </wgt>
<wgt id='1461'> +7.7462343e+04 </wgt>
<wgt id='1462'> +7.7445914e+04 </wgt>
<wgt id='1463'> +7.7489154e+04 </wgt>
<wgt id='1464'> +7.7424508e+04 </wgt>
<wgt id='1465'> +7.7419052e+04 </wgt>
<wgt id='1466'> +7.7387248e+04 </wgt>
<wgt id='1467'> +7.7420882e+04 </wgt>
<wgt id='1468'> +7.7456759e+04 </wgt>
<wgt id='1469'> +7.7458966e+04 </wgt>
<wgt id='1470'> +7.7404421e+04 </wgt>
<wgt id='1471'> +7.7454383e+04 </wgt>
<wgt id='1472'> +7.7438143e+04 </wgt>
<wgt id='1473'> +7.7393880e+04 </wgt>
<wgt id='1474'> +7.7441344e+04 </wgt>
<wgt id='1475'> +7.7470697e+04 </wgt>
<wgt id='1476'> +7.7383884e+04 </wgt>
<wgt id='1477'> +7.7432904e+04 </wgt>
<wgt id='1478'> +7.7439591e+04 </wgt>
<wgt id='1479'> +7.7429777e+04 </wgt>
<wgt id='1480'> +7.7474634e+04 </wgt>
<wgt id='1481'> +7.7433957e+04 </wgt>
<wgt id='1482'> +7.7525073e+04 </wgt>
<wgt id='1483'> +7.7882520e+04 </wgt>
<wgt id='1484'> +7.7780374e+04 </wgt>
<wgt id='1485'> +7.6651095e+04 </wgt>
<wgt id='1486'> +7.6189391e+04 </wgt>
<wgt id='1487'> +8.1265554e+04 </wgt>
<wgt id='1488'> +7.7851395e+04 </wgt>
<wgt id='1489'> +7.7118230e+04 </wgt>
<wgt id='1490'> +8.2089165e+04 </wgt>
<wgt id='1491'> +7.9731744e+04 </wgt>
<wgt id='1492'> +7.9241563e+04 </wgt>
<wgt id='1493'> +7.7305543e+04 </wgt>
<wgt id='1494'> +7.7332005e+04 </wgt>
<wgt id='1495'> +8.2028816e+04 </wgt>
<wgt id='1496'> +7.8925042e+04 </wgt>
<wgt id='1497'> +8.1379646e+04 </wgt>
<wgt id='1498'> +7.6272204e+04 </wgt>
<wgt id='1499'> +7.6399783e+04 </wgt>
<wgt id='1500'> +7.9091942e+04 </wgt>
<wgt id='1501'> +7.7899468e+04 </wgt>
<wgt id='1502'> +7.7538271e+04 </wgt>
<wgt id='1503'> +7.9862984e+04 </wgt>
<wgt id='1504'> +7.7897377e+04 </wgt>
<wgt id='1505'> +7.5192607e+04 </wgt>
<wgt id='1506'> +8.0651406e+04 </wgt>
<wgt id='1507'> +7.6903190e+04 </wgt>
<wgt id='1508'> +8.0758410e+04 </wgt>
<wgt id='1509'> +7.6933382e+04 </wgt>
<wgt id='1510'> +7.9468556e+04 </wgt>
<wgt id='1511'> +7.6479301e+04 </wgt>
<wgt id='1512'> +7.8124547e+04 </wgt>
<wgt id='1513'> +7.9433251e+04 </wgt>
<wgt id='1514'> +7.8431289e+04 </wgt>
<wgt id='1515'> +7.9888055e+04 </wgt>
<wgt id='1516'> +7.7181909e+04 </wgt>
<wgt id='1517'> +7.7119290e+04 </wgt>
<wgt id='1518'> +7.8379338e+04 </wgt>
<wgt id='1519'> +7.8414304e+04 </wgt>
<wgt id='1520'> +7.6127900e+04 </wgt>
<wgt id='1521'> +7.6779107e+04 </wgt>
<wgt id='1522'> +7.7748695e+04 </wgt>
<wgt id='1523'> +7.7558118e+04 </wgt>
<wgt id='1524'> +7.5842207e+04 </wgt>
<wgt id='1525'> +7.5491602e+04 </wgt>
<wgt id='1526'> +7.5409317e+04 </wgt>
<wgt id='1527'> +7.7728569e+04 </wgt>
<wgt id='1528'> +7.6134225e+04 </wgt>
<wgt id='1529'> +7.8407390e+04 </wgt>
<wgt id='1530'> +7.6895953e+04 </wgt>
<wgt id='1531'> +7.8636430e+04 </wgt>
<wgt id='1532'> +7.9092486e+04 </wgt>
<wgt id='1533'> +7.6036860e+04 </wgt>
<wgt id='1534'> +7.7703557e+04 </wgt>
<wgt id='1535'> +7.9064510e+04 </wgt>
<wgt id='1536'> +7.6870206e+04 </wgt>
<wgt id='1537'> +7.7810096e+04 </wgt>
<wgt id='1538'> +7.8766404e+04 </wgt>
<wgt id='1539'> +7.7205362e+04 </wgt>
<wgt id='1540'> +7.7098297e+04 </wgt>
<wgt id='1541'> +7.6265840e+04 </wgt>
<wgt id='1542'> +7.8475687e+04 </wgt>
<wgt id='1543'> +7.7643555e+04 </wgt>
<wgt id='1544'> +7.7441532e+04 </wgt>
<wgt id='1545'> +7.5589470e+04 </wgt>
<wgt id='1546'> +7.7551909e+04 </wgt>
<wgt id='1547'> +7.7154804e+04 </wgt>
<wgt id='1548'> +7.6797618e+04 </wgt>
<wgt id='1549'> +7.8625684e+04 </wgt>
<wgt id='1550'> +7.5938623e+04 </wgt>
<wgt id='1551'> +7.7195442e+04 </wgt>
<wgt id='1552'> +7.6431808e+04 </wgt>
<wgt id='1553'> +7.7585960e+04 </wgt>
<wgt id='1554'> +7.5860912e+04 </wgt>
<wgt id='1555'> +7.9296538e+04 </wgt>
<wgt id='1556'> +7.9965059e+04 </wgt>
<wgt id='1557'> +7.8754255e+04 </wgt>
<wgt id='1558'> +7.5739779e+04 </wgt>
<wgt id='1559'> +7.6498858e+04 </wgt>
<wgt id='1560'> +7.5355762e+04 </wgt>
<wgt id='1561'> +7.7885751e+04 </wgt>
<wgt id='1562'> +7.6907460e+04 </wgt>
<wgt id='1563'> +7.8637653e+04 </wgt>
<wgt id='1564'> +7.5582831e+04 </wgt>
<wgt id='1565'> +7.7360607e+04 </wgt>
<wgt id='1566'> +7.9554651e+04 </wgt>
<wgt id='1567'> +7.9355585e+04 </wgt>
<wgt id='1568'> +7.7471224e+04 </wgt>
<wgt id='1569'> +7.8240006e+04 </wgt>
<wgt id='1570'> +7.7462374e+04 </wgt>
<wgt id='1571'> +7.7832519e+04 </wgt>
<wgt id='1572'> +7.6848089e+04 </wgt>
<wgt id='1573'> +7.8334780e+04 </wgt>
<wgt id='1574'> +7.7545229e+04 </wgt>
<wgt id='1575'> +7.7247253e+04 </wgt>
<wgt id='1576'> +7.6467880e+04 </wgt>
<wgt id='1577'> +7.9365128e+04 </wgt>
<wgt id='1578'> +7.6898268e+04 </wgt>
<wgt id='1579'> +8.0316992e+04 </wgt>
<wgt id='1580'> +7.7925395e+04 </wgt>
<wgt id='1581'> +7.5872338e+04 </wgt>
<wgt id='1582'> +7.6218032e+04 </wgt>
<wgt id='1583'> +7.5940622e+04 </wgt>
<wgt id='1584'> +8.0526001e+04 </wgt>
<wgt id='1585'> +7.5530513e+04 </wgt>
<wgt id='1586'> +8.8317746e+04 </wgt>
<wgt id='1587'> +7.7397424e+04 </wgt>
<wgt id='1588'> +7.7525073e+04 </wgt>
<wgt id='1589'> +7.7694658e+04 </wgt>
<wgt id='1590'> +7.7916161e+04 </wgt>
<wgt id='1591'> +7.7882520e+04 </wgt>
<wgt id='1592'> +7.8263204e+04 </wgt>
<wgt id='1593'> +6.9384469e+04 </wgt>
<wgt id='1594'> +6.7912484e+04 </wgt>
<wgt id='1595'> +6.9632315e+04 </wgt>
<wgt id='1596'> +6.8851502e+04 </wgt>
<wgt id='1597'> +6.7308193e+04 </wgt>
<wgt id='1598'> +7.4166375e+04 </wgt>
<wgt id='1599'> +6.6100272e+04 </wgt>
<wgt id='1600'> +7.3331983e+04 </wgt>
<wgt id='1601'> +6.6322059e+04 </wgt>
<wgt id='1602'> +7.1537336e+04 </wgt>
<wgt id='1603'> +6.7746005e+04 </wgt>
<wgt id='1604'> +6.9043151e+04 </wgt>
<wgt id='1605'> +7.0436730e+04 </wgt>
<wgt id='1606'> +6.6087984e+04 </wgt>
<wgt id='1607'> +7.1005326e+04 </wgt>
<wgt id='1608'> +6.7622186e+04 </wgt>
<wgt id='1609'> +6.7855662e+04 </wgt>
<wgt id='1610'> +6.9590930e+04 </wgt>
<wgt id='1611'> +6.9045876e+04 </wgt>
<wgt id='1612'> +6.8429839e+04 </wgt>
<wgt id='1613'> +7.0203516e+04 </wgt>
<wgt id='1614'> +6.8315972e+04 </wgt>
<wgt id='1615'> +7.1420328e+04 </wgt>
<wgt id='1616'> +7.1217403e+04 </wgt>
<wgt id='1617'> +6.6679376e+04 </wgt>
<wgt id='1618'> +6.8811550e+04 </wgt>
<wgt id='1619'> +7.1162998e+04 </wgt>
<wgt id='1620'> +6.8116215e+04 </wgt>
<wgt id='1621'> +6.9999338e+04 </wgt>
<wgt id='1622'> +6.8138833e+04 </wgt>
<wgt id='1623'> +6.9637730e+04 </wgt>
<wgt id='1624'> +6.9622557e+04 </wgt>
<wgt id='1625'> +6.7102168e+04 </wgt>
<wgt id='1626'> +6.8791475e+04 </wgt>
<wgt id='1627'> +6.9368692e+04 </wgt>
<wgt id='1628'> +6.8550935e+04 </wgt>
<wgt id='1629'> +6.8615255e+04 </wgt>
<wgt id='1630'> +6.5302592e+04 </wgt>
<wgt id='1631'> +7.4194914e+04 </wgt>
<wgt id='1632'> +6.5644928e+04 </wgt>
<wgt id='1633'> +7.4092896e+04 </wgt>
<wgt id='1634'> +6.8149675e+04 </wgt>
<wgt id='1635'> +7.0592054e+04 </wgt>
<wgt id='1636'> +7.0604644e+04 </wgt>
<wgt id='1637'> +6.8383341e+04 </wgt>
<wgt id='1638'> +6.9177406e+04 </wgt>
<wgt id='1639'> +6.7946087e+04 </wgt>
<wgt id='1640'> +6.7527217e+04 </wgt>
<wgt id='1641'> +7.0617625e+04 </wgt>
<wgt id='1642'> +7.1206597e+04 </wgt>
<wgt id='1643'> +6.8028844e+04 </wgt>
<wgt id='1644'> +6.5752042e+04 </wgt>
<wgt id='1645'> +7.4282678e+04 </wgt>
<wgt id='1646'> +6.7888267e+04 </wgt>
<wgt id='1647'> +6.9231989e+04 </wgt>
<wgt id='1648'> +6.8402539e+04 </wgt>
<wgt id='1649'> +6.9872120e+04 </wgt>
<wgt id='1650'> +6.9227190e+04 </wgt>
<wgt id='1651'> +6.9613157e+04 </wgt>
<wgt id='1652'> +6.8199929e+04 </wgt>
<wgt id='1653'> +6.8824656e+04 </wgt>
<wgt id='1654'> +6.9885826e+04 </wgt>
<wgt id='1655'> +7.0339811e+04 </wgt>
<wgt id='1656'> +7.9127438e+04 </wgt>
<wgt id='1657'> +7.8732836e+04 </wgt>
<wgt id='1658'> +7.8029395e+04 </wgt>
<wgt id='1659'> +7.9747477e+04 </wgt>
<wgt id='1660'> +7.8531011e+04 </wgt>
<wgt id='1661'> +7.8028179e+04 </wgt>
<wgt id='1662'> +7.9029061e+04 </wgt>
<wgt id='1663'> +7.8319415e+04 </wgt>
<wgt id='1664'> +7.8374001e+04 </wgt>
<wgt id='1665'> +7.8294833e+04 </wgt>
<wgt id='1666'> +7.8983286e+04 </wgt>
<wgt id='1667'> +7.8573789e+04 </wgt>
<wgt id='1668'> +7.9478760e+04 </wgt>
<wgt id='1669'> +7.8468476e+04 </wgt>
<wgt id='1670'> +7.9921784e+04 </wgt>
<wgt id='1671'> +7.8756670e+04 </wgt>
<wgt id='1672'> +7.9622673e+04 </wgt>
<wgt id='1673'> +8.0560702e+04 </wgt>
<wgt id='1674'> +7.8204363e+04 </wgt>
<wgt id='1675'> +7.8772782e+04 </wgt>
<wgt id='1676'> +7.8213382e+04 </wgt>
<wgt id='1677'> +7.9653825e+04 </wgt>
<wgt id='1678'> +7.8138506e+04 </wgt>
<wgt id='1679'> +7.9958713e+04 </wgt>
<wgt id='1680'> +7.9053733e+04 </wgt>
<wgt id='1681'> +7.9841905e+04 </wgt>
<wgt id='1682'> +7.7588426e+04 </wgt>
<wgt id='1683'> +7.8868829e+04 </wgt>
<wgt id='1684'> +7.8764026e+04 </wgt>
<wgt id='1685'> +7.9701486e+04 </wgt>
<wgt id='1686'> +7.7337006e+04 </wgt>
<wgt id='1687'> +7.6807221e+04 </wgt>
<wgt id='1688'> +8.2283239e+04 </wgt>
<wgt id='1689'> +7.7290239e+04 </wgt>
<wgt id='1690'> +8.1324750e+04 </wgt>
<wgt id='1691'> +7.7943919e+04 </wgt>
<wgt id='1692'> +7.9422158e+04 </wgt>
<wgt id='1693'> +7.4846326e+04 </wgt>
<wgt id='1694'> +8.4840842e+04 </wgt>
<wgt id='1695'> +7.8576918e+04 </wgt>
<wgt id='1696'> +7.9109398e+04 </wgt>
<wgt id='1697'> +7.8273320e+04 </wgt>
<wgt id='1698'> +8.0220815e+04 </wgt>
<wgt id='1699'> +7.8482645e+04 </wgt>
<wgt id='1700'> +7.7736245e+04 </wgt>
<wgt id='1701'> +8.2049944e+04 </wgt>
<wgt id='1702'> +7.7009335e+04 </wgt>
<wgt id='1703'> +8.0485286e+04 </wgt>
<wgt id='1704'> +7.8212165e+04 </wgt>
<wgt id='1705'> +7.8786165e+04 </wgt>
<wgt id='1706'> +7.8580055e+04 </wgt>
<wgt id='1707'> +7.8965648e+04 </wgt>
<wgt id='1708'> +7.9079966e+04 </wgt>
<wgt id='1709'> +7.8730453e+04 </wgt>
<wgt id='1710'> +7.8304314e+04 </wgt>
<wgt id='1711'> +7.8567448e+04 </wgt>
<wgt id='1712'> +7.8594083e+04 </wgt>
<wgt id='1713'> +7.8231212e+04 </wgt>
<wgt id='1714'> +7.9419198e+04 </wgt>
<wgt id='1715'> +7.5785308e+04 </wgt>
<wgt id='1716'> +7.1459030e+04 </wgt>
<wgt id='1717'> +7.6743514e+04 </wgt>
<wgt id='1718'> +7.6735497e+04 </wgt>
<wgt id='1719'> +7.6753433e+04 </wgt>
<wgt id='1720'> +7.7054393e+04 </wgt>
<wgt id='1721'> +7.6454329e+04 </wgt>
<wgt id='1722'> +7.7396929e+04 </wgt>
<wgt id='1723'> +7.5664696e+04 </wgt>
<wgt id='1724'> +7.6611183e+04 </wgt>
<wgt id='1725'> +7.6850390e+04 </wgt>
<wgt id='1726'> +7.6224525e+04 </wgt>
<wgt id='1727'> +7.7279474e+04 </wgt>
<wgt id='1728'> +7.6367697e+04 </wgt>
<wgt id='1729'> +7.7108284e+04 </wgt>
<wgt id='1730'> +7.6670244e+04 </wgt>
<wgt id='1731'> +7.6795906e+04 </wgt>
<wgt id='1732'> +7.6783410e+04 </wgt>
<wgt id='1733'> +7.6783410e+04 </wgt>
<wgt id='1734'> +7.6696049e+04 </wgt>
<wgt id='1735'> +7.6773034e+04 </wgt>
<wgt id='1736'> +7.6879301e+04 </wgt>
<wgt id='1737'> +7.6561357e+04 </wgt>
<wgt id='1738'> +7.6478085e+04 </wgt>
<wgt id='1739'> +7.7157846e+04 </wgt>
<wgt id='1740'> +7.6755523e+04 </wgt>
<wgt id='1741'> +7.6719162e+04 </wgt>
<wgt id='1742'> +7.6782645e+04 </wgt>
<wgt id='1743'> +7.6715531e+04 </wgt>
<wgt id='1744'> +7.6648627e+04 </wgt>
<wgt id='1745'> +7.7000261e+04 </wgt>
<wgt id='1746'> +7.5715939e+04 </wgt>
<wgt id='1747'> +7.7334379e+04 </wgt>
<wgt id='1748'> +7.6954956e+04 </wgt>
<wgt id='1749'> +7.6035951e+04 </wgt>
<wgt id='1750'> +7.6554287e+04 </wgt>
<wgt id='1751'> +7.6947597e+04 </wgt>
<wgt id='1752'> +7.6943852e+04 </wgt>
<wgt id='1753'> +7.6486913e+04 </wgt>
<wgt id='1754'> +7.6839562e+04 </wgt>
<wgt id='1755'> +7.6692173e+04 </wgt>
<wgt id='1756'> +7.6613114e+04 </wgt>
<wgt id='1757'> +7.7121925e+04 </wgt>
<wgt id='1758'> +7.6872380e+04 </wgt>
<wgt id='1759'> +7.6622888e+04 </wgt>
<wgt id='1760'> +7.6147883e+04 </wgt>
<wgt id='1761'> +7.7369592e+04 </wgt>
<wgt id='1762'> +7.6524080e+04 </wgt>
<wgt id='1763'> +7.6841897e+04 </wgt>
<wgt id='1764'> +7.6792448e+04 </wgt>
<wgt id='1765'> +7.6598872e+04 </wgt>
<wgt id='1766'> +7.6767752e+04 </wgt>
<wgt id='1767'> +7.6688380e+04 </wgt>
<wgt id='1768'> +7.6682249e+04 </wgt>
<wgt id='1769'> +7.6752194e+04 </wgt>
<wgt id='1770'> +7.6564604e+04 </wgt>
<wgt id='1771'> +7.6545882e+04 </wgt>
<wgt id='1772'> +7.6753077e+04 </wgt>
<wgt id='1773'> +7.6929519e+04 </wgt>
<wgt id='1774'> +7.7668541e+04 </wgt>
<wgt id='1775'> +7.6111731e+04 </wgt>
<wgt id='1776'> +7.7047674e+04 </wgt>
<wgt id='1777'> +7.6651547e+04 </wgt>
<wgt id='1778'> +7.6759671e+04 </wgt>
<wgt id='1779'> +7.6339957e+04 </wgt>
<wgt id='1780'> +7.5162893e+04 </wgt>
<wgt id='1781'> +7.6881649e+04 </wgt>
<wgt id='1782'> +7.6743514e+04 </wgt>
<wgt id='1783'> +7.6738834e+04 </wgt>
<wgt id='1784'> +7.4719841e+04 </wgt>
<wgt id='1785'> +7.5062475e+04 </wgt>
<wgt id='1786'> +7.8290622e+04 </wgt>
<wgt id='1787'> +7.4798825e+04 </wgt>
<wgt id='1788'> +7.4365739e+04 </wgt>
<wgt id='1789'> +7.4635406e+04 </wgt>
<wgt id='1790'> +7.4482559e+04 </wgt>
<wgt id='1791'> +7.4665213e+04 </wgt>
<wgt id='1792'> +7.5576767e+04 </wgt>
<wgt id='1793'> +7.4863838e+04 </wgt>
<wgt id='1794'> +7.4643332e+04 </wgt>
<wgt id='1795'> +7.5106273e+04 </wgt>
<wgt id='1796'> +7.5037054e+04 </wgt>
<wgt id='1797'> +7.4538442e+04 </wgt>
<wgt id='1798'> +7.4884912e+04 </wgt>
<wgt id='1799'> +7.4498133e+04 </wgt>
<wgt id='1800'> +7.4162531e+04 </wgt>
<wgt id='1801'> +7.3865558e+04 </wgt>
<wgt id='1802'> +7.5555039e+04 </wgt>
<wgt id='1803'> +7.4363026e+04 </wgt>
<wgt id='1804'> +7.4789287e+04 </wgt>
<wgt id='1805'> +7.5255559e+04 </wgt>
<wgt id='1806'> +7.4276293e+04 </wgt>
<wgt id='1807'> +7.4786809e+04 </wgt>
<wgt id='1808'> +7.4439471e+04 </wgt>
<wgt id='1809'> +7.4517154e+04 </wgt>
<wgt id='1810'> +7.4790658e+04 </wgt>
<wgt id='1811'> +7.4766310e+04 </wgt>
<wgt id='1812'> +7.5515951e+04 </wgt>
<wgt id='1813'> +7.5379833e+04 </wgt>
<wgt id='1814'> +7.4541571e+04 </wgt>
<wgt id='1815'> +7.4651361e+04 </wgt>
<wgt id='1816'> +7.4744629e+04 </wgt>
<wgt id='1817'> +7.4581624e+04 </wgt>
<wgt id='1818'> +7.4859847e+04 </wgt>
<wgt id='1819'> +7.4748127e+04 </wgt>
<wgt id='1820'> +7.3896856e+04 </wgt>
<wgt id='1821'> +7.4441233e+04 </wgt>
<wgt id='1822'> +7.4592855e+04 </wgt>
<wgt id='1823'> +7.1895112e+04 </wgt>
<wgt id='1824'> +7.4559738e+04 </wgt>
<wgt id='1825'> +7.3893656e+04 </wgt>
<wgt id='1826'> +7.5465455e+04 </wgt>
<wgt id='1827'> +7.6786610e+04 </wgt>
<wgt id='1828'> +7.6965570e+04 </wgt>
<wgt id='1829'> +7.6626939e+04 </wgt>
<wgt id='1830'> +7.6712038e+04 </wgt>
<wgt id='1831'> +7.6879740e+04 </wgt>
<wgt id='1832'> +7.6902546e+04 </wgt>
<wgt id='1833'> +7.6689239e+04 </wgt>
<wgt id='1834'> +7.6570453e+04 </wgt>
<wgt id='1835'> +7.7007255e+04 </wgt>
<wgt id='1836'> +7.7123549e+04 </wgt>
<wgt id='1837'> +7.6465212e+04 </wgt>
<wgt id='1838'> +7.6874922e+04 </wgt>
<wgt id='1839'> +7.6716356e+04 </wgt>
<wgt id='1840'> +7.6593046e+04 </wgt>
<wgt id='1841'> +7.6999954e+04 </wgt>
<wgt id='1842'> +7.6680239e+04 </wgt>
<wgt id='1843'> +7.6910827e+04 </wgt>
<wgt id='1844'> +7.6846301e+04 </wgt>
<wgt id='1845'> +7.6725519e+04 </wgt>
<wgt id='1846'> +7.6657218e+04 </wgt>
<wgt id='1847'> +7.6926354e+04 </wgt>
<wgt id='1848'> +7.6238583e+04 </wgt>
<wgt id='1849'> +7.7229739e+04 </wgt>
<wgt id='1850'> +7.7042397e+04 </wgt>
<wgt id='1851'> +7.6534733e+04 </wgt>
<wgt id='1852'> +7.6820009e+04 </wgt>
<wgt id='1853'> +7.6575593e+04 </wgt>
<wgt id='1854'> +7.6898974e+04 </wgt>
<wgt id='1855'> +7.6756615e+04 </wgt>
<wgt id='1856'> +7.5237249e+04 </wgt>
<wgt id='1857'> +7.5221866e+04 </wgt>
<wgt id='1858'> +7.5147444e+04 </wgt>
<wgt id='1859'> +7.5284758e+04 </wgt>
<wgt id='1860'> +7.5242938e+04 </wgt>
<wgt id='1861'> +7.5616868e+04 </wgt>
<wgt id='1862'> +7.5458875e+04 </wgt>
<wgt id='1863'> +7.4817638e+04 </wgt>
<wgt id='1864'> +7.5155981e+04 </wgt>
<wgt id='1865'> +7.5191912e+04 </wgt>
<wgt id='1866'> +7.5281482e+04 </wgt>
<wgt id='1867'> +7.5184543e+04 </wgt>
<wgt id='1868'> +7.5569142e+04 </wgt>
<wgt id='1869'> +7.5478859e+04 </wgt>
<wgt id='1870'> +7.5382801e+04 </wgt>
<wgt id='1871'> +7.5361986e+04 </wgt>
<wgt id='1872'> +7.5314571e+04 </wgt>
<wgt id='1873'> +7.5204137e+04 </wgt>
<wgt id='1874'> +7.5061254e+04 </wgt>
<wgt id='1875'> +7.5224352e+04 </wgt>
<wgt id='1876'> +7.4951435e+04 </wgt>
<wgt id='1877'> +7.5597404e+04 </wgt>
<wgt id='1878'> +7.5032575e+04 </wgt>
<wgt id='1879'> +7.5325915e+04 </wgt>
<wgt id='1880'> +7.5574862e+04 </wgt>
<wgt id='1881'> +7.5598601e+04 </wgt>
<wgt id='1882'> +7.5027056e+04 </wgt>
<wgt id='1883'> +7.4992374e+04 </wgt>
<wgt id='1884'> +7.5390807e+04 </wgt>
<wgt id='1885'> +7.4535129e+04 </wgt>
<wgt id='1886'> +3.1206221e+04 </wgt>
<wgt id='1887'> +4.6192361e+04 </wgt>
<wgt id='1888'> +5.5535159e+04 </wgt>
<wgt id='1889'> +6.4621439e+04 </wgt>
</rwgt>
</event>
<event npLO=" -1 " npNLO=" 0 ">
 6      1 +7.4519530e+04 3.34304600e+01 7.55820760e-03 1.19534860e-01
        1 -1    0    0  501    0 +0.0000000000e+00 +0.0000000000e+00 +2.6162545431e+02 2.6162545431e+02 0.0000000000e+00 0.0000e+00 -1.0000e+00
       -2 -1    0    0    0  502 +0.0000000000e+00 +0.0000000000e+00 -2.9826027636e+01 2.9826027636e+01 0.0000000000e+00 0.0000e+00 1.0000e+00
      -24  2    1    2    0    0 +7.7267702621e+00 +2.3533170517e+01 +2.4805862306e+02 2.6182253394e+02 8.0027780864e+01 0.0000e+00 0.0000e+00
       11  1    3    3    0    0 +3.2575377890e+01 +3.0646452361e+01 +2.1629913339e+02 2.2087479573e+02 0.0000000000e+00 0.0000e+00 -1.0000e+00
      -12  1    3    3    0    0 -2.4848607628e+01 -7.1132818449e+00 +3.1759489673e+01 4.0947738203e+01 0.0000000000e+00 0.0000e+00 1.0000e+00
       21  1    1    2  501  502 -7.7267702621e+00 -2.3533170517e+01 -1.6259196383e+01 2.9628948011e+01 0.0000000000e+00 0.0000e+00 1.0000e+00
#aMCatNLO 2  0  0  2  1 0.25177194E+02 0.00000000E+00 -9  5  0 0.00000000E+00 0.00000000E+00 0.00000000E+00 0.00000000E+00 0.00000000E+00
<rwgt>
<wgt id='1001'> +7.4519530e+04 </wgt>
<wgt id='1002'> +6.7383268e+04 </wgt>
<wgt id='1003'> +8.3398335e+04 </wgt>
<wgt id='1004'> +7.9487521e+04 </wgt>
<wgt id='1005'> +7.1875505e+04 </wgt>
<wgt id='1006'> +8.8958248e+04 </wgt>
<wgt id='1007'> +6.8669231e+04 </wgt>
<wgt id='1008'> +6.2093215e+04 </wgt>
<wgt id='1009'> +7.6850988e+04 </wgt>
<wgt id='1010'> +7.4519530e+04 </wgt>
<wgt id='1011'> +7.4585775e+04 </wgt>
<wgt id='1012'> +7.4368540e+04 </wgt>
<wgt id='1013'> +7.4176149e+04 </wgt>
<wgt id='1014'> +7.4655548e+04 </wgt>
<wgt id='1015'> +7.4646012e+04 </wgt>
<wgt id='1016'> +7.4350869e+04 </wgt>
<wgt id='1017'> +7.4597441e+04 </wgt>
<wgt id='1018'> +7.4184876e+04 </wgt>
<wgt id='1019'> +7.4929921e+04 </wgt>
<wgt id='1020'> +7.4188070e+04 </wgt>
<wgt id='1021'> +7.4565318e+04 </wgt>
<wgt id='1022'> +7.4536252e+04 </wgt>
<wgt id='1023'> +7.4666701e+04 </wgt>
<wgt id='1024'> +7.4880130e+04 </wgt>
<wgt id='1025'> +7.5212874e+04 </wgt>
<wgt id='1026'> +7.4264391e+04 </wgt>
<wgt id='1027'> +7.4520628e+04 </wgt>
<wgt id='1028'> +7.3980977e+04 </wgt>
<wgt id='1029'> +7.4586514e+04 </wgt>
<wgt id='1030'> +7.4469564e+04 </wgt>
<wgt id='1031'> +7.4350703e+04 </wgt>
<wgt id='1032'> +7.4989262e+04 </wgt>
<wgt id='1033'> +7.4281890e+04 </wgt>
<wgt id='1034'> +7.4296674e+04 </wgt>
<wgt id='1035'> +7.4208720e+04 </wgt>
<wgt id='1036'> +7.4305956e+04 </wgt>
<wgt id='1037'> +7.5079324e+04 </wgt>
<wgt id='1038'> +7.4822647e+04 </wgt>
<wgt id='1039'> +7.4774891e+04 </wgt>
<wgt id='1040'> +7.4617546e+04 </wgt>
<wgt id='1041'> +7.5242920e+04 </wgt>
<wgt id='1042'> +7.4398142e+04 </wgt>
<wgt id='1043'> +7.4730071e+04 </wgt>
<wgt id='1044'> +7.4608618e+04 </wgt>
<wgt id='1045'> +7.4497885e+04 </wgt>
<wgt id='1046'> +7.4273468e+04 </wgt>
<wgt id='1047'> +7.4776244e+04 </wgt>
<wgt id='1048'> +7.4621401e+04 </wgt>
<wgt id='1049'> +7.4784617e+04 </wgt>
<wgt id='1050'> +7.4773378e+04 </wgt>
<wgt id='1051'> +7.4845233e+04 </wgt>
<wgt id='1052'> +7.4698954e+04 </wgt>
<wgt id='1053'> +7.4414998e+04 </wgt>
<wgt id='1054'> +7.4235226e+04 </wgt>
<wgt id='1055'> +7.4480193e+04 </wgt>
<wgt id='1056'> +7.4580502e+04 </wgt>
<wgt id='1057'> +7.4435286e+04 </wgt>
<wgt id='1058'> +7.4593090e+04 </wgt>
<wgt id='1059'> +7.4412751e+04 </wgt>
<wgt id='1060'> +7.4374312e+04 </wgt>
<wgt id='1061'> +7.4336259e+04 </wgt>
<wgt id='1062'> +7.4639679e+04 </wgt>
<wgt id='1063'> +7.4465163e+04 </wgt>
<wgt id='1064'> +7.4622981e+04 </wgt>
<wgt id='1065'> +7.4532962e+04 </wgt>
<wgt id='1066'> +7.4634656e+04 </wgt>
<wgt id='1067'> +7.4653028e+04 </wgt>
<wgt id='1068'> +7.4515245e+04 </wgt>
<wgt id='1069'> +7.4803747e+04 </wgt>
<wgt id='1070'> +7.4493380e+04 </wgt>
<wgt id='1071'> +7.4541696e+04 </wgt>
<wgt id='1072'> +7.4553759e+04 </wgt>
<wgt id='1073'> +7.4525483e+04 </wgt>
<wgt id='1074'> +7.4392164e+04 </wgt>
<wgt id='1075'> +7.4641501e+04 </wgt>
<wgt id='1076'> +7.4509987e+04 </wgt>
<wgt id='1077'> +7.4504279e+04 </wgt>
<wgt id='1078'> +7.4530309e+04 </wgt>
<wgt id='1079'> +7.4550776e+04 </wgt>
<wgt id='1080'> +7.4557883e+04 </wgt>
<wgt id='1081'> +7.4559934e+04 </wgt>
<wgt id='1082'> +7.4535678e+04 </wgt>
<wgt id='1083'> +7.4472714e+04 </wgt>
<wgt id='1084'> +7.4628229e+04 </wgt>
<wgt id='1085'> +7.4449384e+04 </wgt>
<wgt id='1086'> +7.4575227e+04 </wgt>
<wgt id='1087'> +7.4456998e+04 </wgt>
<wgt id='1088'> +7.4489651e+04 </wgt>
<wgt id='1089'> +7.4498806e+04 </wgt>
<wgt id='1090'> +7.4552943e+04 </wgt>
<wgt id='1091'> +7.4471638e+04 </wgt>
<wgt id='1092'> +7.4471581e+04 </wgt>
<wgt id='1093'> +7.4496251e+04 </wgt>
<wgt id='1094'> +7.4509470e+04 </wgt>
<wgt id='1095'> +7.4414152e+04 </wgt>
<wgt id='1096'> +7.4515168e+04 </wgt>
<wgt id='1097'> +7.4570459e+04 </wgt>
<wgt id='1098'> +7.4497905e+04 </wgt>
<wgt id='1099'> +7.4500451e+04 </wgt>
<wgt id='1100'> +7.4511841e+04 </wgt>
<wgt id='1101'> +7.4508933e+04 </wgt>
<wgt id='1102'> +7.4549273e+04 </wgt>
<wgt id='1103'> +7.4495759e+04 </wgt>
<wgt id='1104'> +7.4488431e+04 </wgt>
<wgt id='1105'> +7.4518880e+04 </wgt>
<wgt id='1106'> +7.4476545e+04 </wgt>
<wgt id='1107'> +7.4524583e+04 </wgt>
<wgt id='1108'> +7.4530504e+04 </wgt>
<wgt id='1109'> +7.4512898e+04 </wgt>
<wgt id='1110'> +7.4519530e+04 </wgt>
<wgt id='1111'> +7.2845663e+04 </wgt>
<wgt id='1112'> +7.6105230e+04 </wgt>
<wgt id='1113'> +7.4519530e+04 </wgt>
<wgt id='1114'> +8.1170957e+04 </wgt>
<wgt id='1115'> +7.5455288e+04 </wgt>
<wgt id='1116'> +7.2078293e+04 </wgt>
<wgt id='1117'> +7.1805019e+04 </wgt>
<wgt id='1118'> +7.2769221e+04 </wgt>
<wgt id='1119'> +7.8198788e+04 </wgt>
<wgt id='1120'> +7.5610244e+04 </wgt>
<wgt id='1121'> +7.3423459e+04 </wgt>
<wgt id='1122'> +7.3154227e+04 </wgt>
<wgt id='1123'> +7.1385196e+04 </wgt>
<wgt id='1124'> +7.4368031e+04 </wgt>
<wgt id='1125'> +7.1914357e+04 </wgt>
<wgt id='1126'> +7.2712126e+04 </wgt>
<wgt id='1127'> +7.6803052e+04 </wgt>
<wgt id='1128'> +7.6309355e+04 </wgt>
<wgt id='1129'> +7.4521496e+04 </wgt>
<wgt id='1130'> +7.5727842e+04 </wgt>
<wgt id='1131'> +7.3721059e+04 </wgt>
<wgt id='1132'> +7.4727658e+04 </wgt>
<wgt id='1133'> +7.1299986e+04 </wgt>
<wgt id='1134'> +7.2719214e+04 </wgt>
<wgt id='1135'> +7.5678658e+04 </wgt>
<wgt id='1136'> +7.6927647e+04 </wgt>
<wgt id='1137'> +7.3489141e+04 </wgt>
<wgt id='1138'> +7.4088434e+04 </wgt>
<wgt id='1139'> +7.7013130e+04 </wgt>
<wgt id='1140'> +7.5469880e+04 </wgt>
<wgt id='1141'> +7.4618069e+04 </wgt>
<wgt id='1142'> +7.4682716e+04 </wgt>
<wgt id='1143'> +7.6414267e+04 </wgt>
<wgt id='1144'> +7.5631515e+04 </wgt>
<wgt id='1145'> +7.3787149e+04 </wgt>
<wgt id='1146'> +7.7318712e+04 </wgt>
<wgt id='1147'> +7.2019125e+04 </wgt>
<wgt id='1148'> +7.5052693e+04 </wgt>
<wgt id='1149'> +7.5362046e+04 </wgt>
<wgt id='1150'> +7.4291473e+04 </wgt>
<wgt id='1151'> +7.3558397e+04 </wgt>
<wgt id='1152'> +7.4449774e+04 </wgt>
<wgt id='1153'> +7.5066136e+04 </wgt>
<wgt id='1154'> +7.3878238e+04 </wgt>
<wgt id='1155'> +7.5518211e+04 </wgt>
<wgt id='1156'> +7.4808523e+04 </wgt>
<wgt id='1157'> +7.5495728e+04 </wgt>
<wgt id='1158'> +7.6081410e+04 </wgt>
<wgt id='1159'> +7.5338984e+04 </wgt>
<wgt id='1160'> +7.5009184e+04 </wgt>
<wgt id='1161'> +7.4100679e+04 </wgt>
<wgt id='1162'> +7.7370174e+04 </wgt>
<wgt id='1163'> +7.3256770e+04 </wgt>
<wgt id='1164'> +7.4428945e+04 </wgt>
<wgt id='1165'> +7.3990629e+04 </wgt>
<wgt id='1166'> +7.4886606e+04 </wgt>
<wgt id='1167'> +7.6147981e+04 </wgt>
<wgt id='1168'> +7.5099815e+04 </wgt>
<wgt id='1169'> +7.4863702e+04 </wgt>
<wgt id='1170'> +7.7160877e+04 </wgt>
<wgt id='1171'> +7.4531517e+04 </wgt>
<wgt id='1172'> +7.5479172e+04 </wgt>
<wgt id='1173'> +7.7353328e+04 </wgt>
<wgt id='1174'> +7.5303214e+04 </wgt>
<wgt id='1175'> +7.4935867e+04 </wgt>
<wgt id='1176'> +7.2502801e+04 </wgt>
<wgt id='1177'> +7.2664073e+04 </wgt>
<wgt id='1178'> +7.6287757e+04 </wgt>
<wgt id='1179'> +7.9769511e+04 </wgt>
<wgt id='1180'> +7.5855586e+04 </wgt>
<wgt id='1181'> +7.6222650e+04 </wgt>
<wgt id='1182'> +7.4382494e+04 </wgt>
<wgt id='1183'> +7.3316832e+04 </wgt>
<wgt id='1184'> +7.3714299e+04 </wgt>
<wgt id='1185'> +7.5363610e+04 </wgt>
<wgt id='1186'> +7.0043379e+04 </wgt>
<wgt id='1187'> +7.0944837e+04 </wgt>
<wgt id='1188'> +7.3697492e+04 </wgt>
<wgt id='1189'> +7.6906719e+04 </wgt>
<wgt id='1190'> +7.0581771e+04 </wgt>
<wgt id='1191'> +7.5650225e+04 </wgt>
<wgt id='1192'> +7.3775915e+04 </wgt>
<wgt id='1193'> +7.4203611e+04 </wgt>
<wgt id='1194'> +7.3185838e+04 </wgt>
<wgt id='1195'> +7.4521496e+04 </wgt>
<wgt id='1196'> +7.2144756e+04 </wgt>
<wgt id='1197'> +7.3234560e+04 </wgt>
<wgt id='1198'> +7.3981965e+04 </wgt>
<wgt id='1199'> +7.8437040e+04 </wgt>
<wgt id='1200'> +7.2876438e+04 </wgt>
<wgt id='1201'> +7.5335004e+04 </wgt>
<wgt id='1202'> +6.7566248e+04 </wgt>
<wgt id='1203'> +7.3131471e+04 </wgt>
<wgt id='1204'> +7.5621330e+04 </wgt>
<wgt id='1205'> +7.3181234e+04 </wgt>
<wgt id='1206'> +7.3630082e+04 </wgt>
<wgt id='1207'> +7.5857639e+04 </wgt>
<wgt id='1208'> +7.3068990e+04 </wgt>
<wgt id='1209'> +7.5944606e+04 </wgt>
<wgt id='1210'> +7.5516222e+04 </wgt>
<wgt id='1211'> +7.3584407e+04 </wgt>
<wgt id='1212'> +7.2307388e+04 </wgt>
<wgt id='1213'> +7.3610011e+04 </wgt>
<wgt id='1214'> +7.4468142e+04 </wgt>
<wgt id='1215'> +6.7563535e+04 </wgt>
<wgt id='1216'> +6.8542377e+04 </wgt>
<wgt id='1217'> +7.0116840e+04 </wgt>
<wgt id='1218'> +7.1820929e+04 </wgt>
<wgt id='1219'> +7.3890263e+04 </wgt>
<wgt id='1220'> +7.5164617e+04 </wgt>
<wgt id='1221'> +7.7553114e+04 </wgt>
<wgt id='1222'> +7.8737927e+04 </wgt>
<wgt id='1223'> +7.3068257e+04 </wgt>
<wgt id='1224'> +7.3009330e+04 </wgt>
<wgt id='1225'> +7.3212889e+04 </wgt>
<wgt id='1226'> +7.3088266e+04 </wgt>
<wgt id='1227'> +7.3322844e+04 </wgt>
<wgt id='1228'> +7.3199952e+04 </wgt>
<wgt id='1229'> +7.2865190e+04 </wgt>
<wgt id='1230'> +7.3280025e+04 </wgt>
<wgt id='1231'> +7.3062208e+04 </wgt>
<wgt id='1232'> +7.3369450e+04 </wgt>
<wgt id='1233'> +7.2584285e+04 </wgt>
<wgt id='1234'> +7.2927085e+04 </wgt>
<wgt id='1235'> +7.3135443e+04 </wgt>
<wgt id='1236'> +7.3213550e+04 </wgt>
<wgt id='1237'> +7.3395639e+04 </wgt>
<wgt id='1238'> +7.2602088e+04 </wgt>
<wgt id='1239'> +7.3428596e+04 </wgt>
<wgt id='1240'> +7.2885415e+04 </wgt>
<wgt id='1241'> +7.3265381e+04 </wgt>
<wgt id='1242'> +7.2987173e+04 </wgt>
<wgt id='1243'> +7.2551569e+04 </wgt>
<wgt id='1244'> +7.3630157e+04 </wgt>
<wgt id='1245'> +7.3164145e+04 </wgt>
<wgt id='1246'> +7.3192138e+04 </wgt>
<wgt id='1247'> +7.3426523e+04 </wgt>
<wgt id='1248'> +7.2528662e+04 </wgt>
<wgt id='1249'> +7.3042628e+04 </wgt>
<wgt id='1250'> +7.3013122e+04 </wgt>
<wgt id='1251'> +7.3127112e+04 </wgt>
<wgt id='1252'> +7.3779448e+04 </wgt>
<wgt id='1253'> +7.2417517e+04 </wgt>
<wgt id='1254'> +7.2680343e+04 </wgt>
<wgt id='1255'> +7.3163506e+04 </wgt>
<wgt id='1256'> +7.3234130e+04 </wgt>
<wgt id='1257'> +7.3100977e+04 </wgt>
<wgt id='1258'> +7.3292545e+04 </wgt>
<wgt id='1259'> +7.3162915e+04 </wgt>
<wgt id='1260'> +7.2768373e+04 </wgt>
<wgt id='1261'> +7.3068567e+04 </wgt>
<wgt id='1262'> +7.3124509e+04 </wgt>
<wgt id='1263'> +7.3069657e+04 </wgt>
<wgt id='1264'> +7.3091260e+04 </wgt>
<wgt id='1265'> +7.2931656e+04 </wgt>
<wgt id='1266'> +7.2753646e+04 </wgt>
<wgt id='1267'> +7.2974975e+04 </wgt>
<wgt id='1268'> +7.3023951e+04 </wgt>
<wgt id='1269'> +7.3276028e+04 </wgt>
<wgt id='1270'> +7.3148310e+04 </wgt>
<wgt id='1271'> +7.3085055e+04 </wgt>
<wgt id='1272'> +7.3197332e+04 </wgt>
<wgt id='1273'> +7.3207304e+04 </wgt>
<wgt id='1274'> +7.3024472e+04 </wgt>
<wgt id='1275'> +7.2908835e+04 </wgt>
<wgt id='1276'> +7.2921591e+04 </wgt>
<wgt id='1277'> +7.3038451e+04 </wgt>
<wgt id='1278'> +7.3184911e+04 </wgt>
<wgt id='1279'> +7.2991402e+04 </wgt>
<wgt id='1280'> +7.3110750e+04 </wgt>
<wgt id='1281'> +7.3047806e+04 </wgt>
<wgt id='1282'> +7.3027387e+04 </wgt>
<wgt id='1283'> +7.2962347e+04 </wgt>
<wgt id='1284'> +7.3177016e+04 </wgt>
<wgt id='1285'> +7.3101301e+04 </wgt>
<wgt id='1286'> +7.3148652e+04 </wgt>
<wgt id='1287'> +7.2992756e+04 </wgt>
<wgt id='1288'> +7.2989248e+04 </wgt>
<wgt id='1289'> +7.3073850e+04 </wgt>
<wgt id='1290'> +7.2970321e+04 </wgt>
<wgt id='1291'> +7.3096797e+04 </wgt>
<wgt id='1292'> +7.3027830e+04 </wgt>
<wgt id='1293'> +7.3161098e+04 </wgt>
<wgt id='1294'> +7.3152362e+04 </wgt>
<wgt id='1295'> +7.3112259e+04 </wgt>
<wgt id='1296'> +7.3094906e+04 </wgt>
<wgt id='1297'> +7.3130233e+04 </wgt>
<wgt id='1298'> +7.3168436e+04 </wgt>
<wgt id='1299'> +7.3135658e+04 </wgt>
<wgt id='1300'> +7.3119516e+04 </wgt>
<wgt id='1301'> +7.3124564e+04 </wgt>
<wgt id='1302'> +7.3095993e+04 </wgt>
<wgt id='1303'> +7.3088811e+04 </wgt>
<wgt id='1304'> +7.3100351e+04 </wgt>
<wgt id='1305'> +7.3024847e+04 </wgt>
<wgt id='1306'> +7.3027934e+04 </wgt>
<wgt id='1307'> +7.3121322e+04 </wgt>
<wgt id='1308'> +7.3030209e+04 </wgt>
<wgt id='1309'> +7.3085997e+04 </wgt>
<wgt id='1310'> +7.3004701e+04 </wgt>
<wgt id='1311'> +7.3050349e+04 </wgt>
<wgt id='1312'> +7.3114683e+04 </wgt>
<wgt id='1313'> +7.3068012e+04 </wgt>
<wgt id='1314'> +7.3161272e+04 </wgt>
<wgt id='1315'> +7.3100013e+04 </wgt>
<wgt id='1316'> +7.3102193e+04 </wgt>
<wgt id='1317'> +7.3073242e+04 </wgt>
<wgt id='1318'> +7.3092743e+04 </wgt>
<wgt id='1319'> +7.3021838e+04 </wgt>
<wgt id='1320'> +7.3031370e+04 </wgt>
<wgt id='1321'> +7.3032465e+04 </wgt>
<wgt id='1322'> +7.3091453e+04 </wgt>
<wgt id='1323'> +7.3117059e+04 </wgt>
<wgt id='1324'> +7.1576094e+04 </wgt>
<wgt id='1325'> +7.4664438e+04 </wgt>
<wgt id='1326'> +7.1019869e+04 </wgt>
<wgt id='1327'> +6.7499230e+04 </wgt>
<wgt id='1328'> +7.3552801e+04 </wgt>
<wgt id='1329'> +7.2892116e+04 </wgt>
<wgt id='1330'> +7.4489368e+04 </wgt>
<wgt id='1331'> +7.3965028e+04 </wgt>
<wgt id='1332'> +7.4727794e+04 </wgt>
<wgt id='1333'> +7.3982997e+04 </wgt>
<wgt id='1334'> +7.3412434e+04 </wgt>
<wgt id='1335'> +7.1248561e+04 </wgt>
<wgt id='1336'> +7.4261636e+04 </wgt>
<wgt id='1337'> +7.4085695e+04 </wgt>
<wgt id='1338'> +7.2564385e+04 </wgt>
<wgt id='1339'> +7.3775525e+04 </wgt>
<wgt id='1340'> +7.3359605e+04 </wgt>
<wgt id='1341'> +7.1306891e+04 </wgt>
<wgt id='1342'> +7.4878437e+04 </wgt>
<wgt id='1343'> +7.2918770e+04 </wgt>
<wgt id='1344'> +7.3239242e+04 </wgt>
<wgt id='1345'> +7.5188720e+04 </wgt>
<wgt id='1346'> +7.4406419e+04 </wgt>
<wgt id='1347'> +7.3979048e+04 </wgt>
<wgt id='1348'> +7.0227641e+04 </wgt>
<wgt id='1349'> +7.3555512e+04 </wgt>
<wgt id='1350'> +7.3636715e+04 </wgt>
<wgt id='1351'> +7.2351443e+04 </wgt>
<wgt id='1352'> +7.5031346e+04 </wgt>
<wgt id='1353'> +7.6283818e+04 </wgt>
<wgt id='1354'> +7.2682476e+04 </wgt>
<wgt id='1355'> +7.3723815e+04 </wgt>
<wgt id='1356'> +7.4085737e+04 </wgt>
<wgt id='1357'> +7.3683333e+04 </wgt>
<wgt id='1358'> +7.4254371e+04 </wgt>
<wgt id='1359'> +7.2781372e+04 </wgt>
<wgt id='1360'> +7.5389183e+04 </wgt>
<wgt id='1361'> +7.5865402e+04 </wgt>
<wgt id='1362'> +7.3230672e+04 </wgt>
<wgt id='1363'> +7.1801013e+04 </wgt>
<wgt id='1364'> +7.2470564e+04 </wgt>
<wgt id='1365'> +7.4676203e+04 </wgt>
<wgt id='1366'> +7.3912946e+04 </wgt>
<wgt id='1367'> +7.5245755e+04 </wgt>
<wgt id='1368'> +7.3888851e+04 </wgt>
<wgt id='1369'> +7.4563479e+04 </wgt>
<wgt id='1370'> +7.0109899e+04 </wgt>
<wgt id='1371'> +7.3096633e+04 </wgt>
<wgt id='1372'> +7.5135824e+04 </wgt>
<wgt id='1373'> +7.2294983e+04 </wgt>
<wgt id='1374'> +7.3695587e+04 </wgt>
<wgt id='1375'> +7.4069897e+04 </wgt>
<wgt id='1376'> +7.4095224e+04 </wgt>
<wgt id='1377'> +7.4350209e+04 </wgt>
<wgt id='1378'> +7.3548372e+04 </wgt>
<wgt id='1379'> +7.2585255e+04 </wgt>
<wgt id='1380'> +7.3648169e+04 </wgt>
<wgt id='1381'> +7.3519291e+04 </wgt>
<wgt id='1382'> +7.2079181e+04 </wgt>
<wgt id='1383'> +7.2500480e+04 </wgt>
<wgt id='1384'> +7.3588494e+04 </wgt>
<wgt id='1385'> +6.8909405e+04 </wgt>
<wgt id='1386'> +7.4255351e+04 </wgt>
<wgt id='1387'> +7.2998849e+04 </wgt>
<wgt id='1388'> +7.3670877e+04 </wgt>
<wgt id='1389'> +7.3064986e+04 </wgt>
<wgt id='1390'> +7.1854726e+04 </wgt>
<wgt id='1391'> +7.3690456e+04 </wgt>
<wgt id='1392'> +7.1988779e+04 </wgt>
<wgt id='1393'> +7.0539688e+04 </wgt>
<wgt id='1394'> +7.4676203e+04 </wgt>
<wgt id='1395'> +7.3403294e+04 </wgt>
<wgt id='1396'> +7.4732317e+04 </wgt>
<wgt id='1397'> +7.3541948e+04 </wgt>
<wgt id='1398'> +7.4640190e+04 </wgt>
<wgt id='1399'> +7.2735254e+04 </wgt>
<wgt id='1400'> +7.3912606e+04 </wgt>
<wgt id='1401'> +7.2120728e+04 </wgt>
<wgt id='1402'> +7.3838258e+04 </wgt>
<wgt id='1403'> +7.6158727e+04 </wgt>
<wgt id='1404'> +7.4020238e+04 </wgt>
<wgt id='1405'> +7.2606478e+04 </wgt>
<wgt id='1406'> +7.3684764e+04 </wgt>
<wgt id='1407'> +7.5075540e+04 </wgt>
<wgt id='1408'> +7.3733823e+04 </wgt>
<wgt id='1409'> +7.3538222e+04 </wgt>
<wgt id='1410'> +7.4975650e+04 </wgt>
<wgt id='1411'> +7.4496891e+04 </wgt>
<wgt id='1412'> +7.3576704e+04 </wgt>
<wgt id='1413'> +7.3723912e+04 </wgt>
<wgt id='1414'> +7.1783299e+04 </wgt>
<wgt id='1415'> +7.3883771e+04 </wgt>
<wgt id='1416'> +7.3052587e+04 </wgt>
<wgt id='1417'> +7.2605084e+04 </wgt>
<wgt id='1418'> +7.5634404e+04 </wgt>
<wgt id='1419'> +7.2630958e+04 </wgt>
<wgt id='1420'> +7.2794634e+04 </wgt>
<wgt id='1421'> +7.3682428e+04 </wgt>
<wgt id='1422'> +7.3695604e+04 </wgt>
<wgt id='1423'> +7.5034338e+04 </wgt>
<wgt id='1424'> +7.3551934e+04 </wgt>
<wgt id='1425'> +7.3966431e+04 </wgt>
<wgt id='1426'> +7.3215269e+04 </wgt>
<wgt id='1427'> +7.3673968e+04 </wgt>
<wgt id='1428'> +7.4833144e+04 </wgt>
<wgt id='1429'> +7.3255537e+04 </wgt>
<wgt id='1430'> +7.3749310e+04 </wgt>
<wgt id='1431'> +7.3511096e+04 </wgt>
<wgt id='1432'> +7.3571784e+04 </wgt>
<wgt id='1433'> +7.3471928e+04 </wgt>
<wgt id='1434'> +7.3529649e+04 </wgt>
<wgt id='1435'> +7.3353277e+04 </wgt>
<wgt id='1436'> +7.2977127e+04 </wgt>
<wgt id='1437'> +7.3585218e+04 </wgt>
<wgt id='1438'> +7.3519828e+04 </wgt>
<wgt id='1439'> +7.3243225e+04 </wgt>
<wgt id='1440'> +7.3420901e+04 </wgt>
<wgt id='1441'> +7.3334901e+04 </wgt>
<wgt id='1442'> +7.3106209e+04 </wgt>
<wgt id='1443'> +7.3403962e+04 </wgt>
<wgt id='1444'> +7.3132698e+04 </wgt>
<wgt id='1445'> +7.2974673e+04 </wgt>
<wgt id='1446'> +7.3382033e+04 </wgt>
<wgt id='1447'> +7.3216476e+04 </wgt>
<wgt id='1448'> +7.3694284e+04 </wgt>
<wgt id='1449'> +7.3557165e+04 </wgt>
<wgt id='1450'> +7.3397373e+04 </wgt>
<wgt id='1451'> +7.3370082e+04 </wgt>
<wgt id='1452'> +7.3279754e+04 </wgt>
<wgt id='1453'> +7.3386943e+04 </wgt>
<wgt id='1454'> +7.3589147e+04 </wgt>
<wgt id='1455'> +7.3445589e+04 </wgt>
<wgt id='1456'> +7.3469227e+04 </wgt>
<wgt id='1457'> +7.3274536e+04 </wgt>
<wgt id='1458'> +7.3520889e+04 </wgt>
<wgt id='1459'> +7.3504753e+04 </wgt>
<wgt id='1460'> +7.3373447e+04 </wgt>
<wgt id='1461'> +7.3525983e+04 </wgt>
<wgt id='1462'> +7.3517693e+04 </wgt>
<wgt id='1463'> +7.3463461e+04 </wgt>
<wgt id='1464'> +7.3429565e+04 </wgt>
<wgt id='1465'> +7.3477424e+04 </wgt>
<wgt id='1466'> +7.3446726e+04 </wgt>
<wgt id='1467'> +7.3503608e+04 </wgt>
<wgt id='1468'> +7.3493840e+04 </wgt>
<wgt id='1469'> +7.3555608e+04 </wgt>
<wgt id='1470'> +7.3481002e+04 </wgt>
<wgt id='1471'> +7.3500286e+04 </wgt>
<wgt id='1472'> +7.3474453e+04 </wgt>
<wgt id='1473'> +7.3524966e+04 </wgt>
<wgt id='1474'> +7.3537224e+04 </wgt>
<wgt id='1475'> +7.3544846e+04 </wgt>
<wgt id='1476'> +7.3516300e+04 </wgt>
<wgt id='1477'> +7.3500127e+04 </wgt>
<wgt id='1478'> +7.3571678e+04 </wgt>
<wgt id='1479'> +7.3480249e+04 </wgt>
<wgt id='1480'> +7.3467909e+04 </wgt>
<wgt id='1481'> +7.3536111e+04 </wgt>
<wgt id='1482'> +7.3255537e+04 </wgt>
<wgt id='1483'> +7.3749310e+04 </wgt>
<wgt id='1484'> +7.3472474e+04 </wgt>
<wgt id='1485'> +7.3841781e+04 </wgt>
<wgt id='1486'> +7.4632502e+04 </wgt>
<wgt id='1487'> +7.3767989e+04 </wgt>
<wgt id='1488'> +7.3232995e+04 </wgt>
<wgt id='1489'> +7.2827856e+04 </wgt>
<wgt id='1490'> +7.3200146e+04 </wgt>
<wgt id='1491'> +7.3389161e+04 </wgt>
<wgt id='1492'> +7.1992741e+04 </wgt>
<wgt id='1493'> +7.4517565e+04 </wgt>
<wgt id='1494'> +7.3516890e+04 </wgt>
<wgt id='1495'> +7.1770011e+04 </wgt>
<wgt id='1496'> +7.1595339e+04 </wgt>
<wgt id='1497'> +7.2299934e+04 </wgt>
<wgt id='1498'> +7.4928148e+04 </wgt>
<wgt id='1499'> +7.4264308e+04 </wgt>
<wgt id='1500'> +7.3536191e+04 </wgt>
<wgt id='1501'> +7.2883222e+04 </wgt>
<wgt id='1502'> +7.3992903e+04 </wgt>
<wgt id='1503'> +7.3281711e+04 </wgt>
<wgt id='1504'> +7.3141418e+04 </wgt>
<wgt id='1505'> +7.4377866e+04 </wgt>
<wgt id='1506'> +7.3158504e+04 </wgt>
<wgt id='1507'> +7.2835828e+04 </wgt>
<wgt id='1508'> +7.2152010e+04 </wgt>
<wgt id='1509'> +7.5590058e+04 </wgt>
<wgt id='1510'> +7.6344360e+04 </wgt>
<wgt id='1511'> +7.4521867e+04 </wgt>
<wgt id='1512'> +7.3974191e+04 </wgt>
<wgt id='1513'> +7.2015966e+04 </wgt>
<wgt id='1514'> +7.3047059e+04 </wgt>
<wgt id='1515'> +7.3261318e+04 </wgt>
<wgt id='1516'> +7.3486943e+04 </wgt>
<wgt id='1517'> +7.4237185e+04 </wgt>
<wgt id='1518'> +7.3431134e+04 </wgt>
<wgt id='1519'> +7.3267911e+04 </wgt>
<wgt id='1520'> +7.5290613e+04 </wgt>
<wgt id='1521'> +7.2982072e+04 </wgt>
<wgt id='1522'> +7.3869404e+04 </wgt>
<wgt id='1523'> +7.2939187e+04 </wgt>
<wgt id='1524'> +7.4175619e+04 </wgt>
<wgt id='1525'> +7.3144432e+04 </wgt>
<wgt id='1526'> +7.2301304e+04 </wgt>
<wgt id='1527'> +7.2953356e+04 </wgt>
<wgt id='1528'> +7.3510826e+04 </wgt>
<wgt id='1529'> +7.3340359e+04 </wgt>
<wgt id='1530'> +7.2406937e+04 </wgt>
<wgt id='1531'> +7.4881474e+04 </wgt>
<wgt id='1532'> +7.4464183e+04 </wgt>
<wgt id='1533'> +7.5385713e+04 </wgt>
<wgt id='1534'> +7.3383232e+04 </wgt>
<wgt id='1535'> +7.4322859e+04 </wgt>
<wgt id='1536'> +7.2953600e+04 </wgt>
<wgt id='1537'> +7.4609305e+04 </wgt>
<wgt id='1538'> +7.2680512e+04 </wgt>
<wgt id='1539'> +7.3932120e+04 </wgt>
<wgt id='1540'> +7.3222620e+04 </wgt>
<wgt id='1541'> +7.3447906e+04 </wgt>
<wgt id='1542'> +7.3020453e+04 </wgt>
<wgt id='1543'> +7.4402704e+04 </wgt>
<wgt id='1544'> +7.3132412e+04 </wgt>
<wgt id='1545'> +7.3807960e+04 </wgt>
<wgt id='1546'> +7.2207572e+04 </wgt>
<wgt id='1547'> +7.3367196e+04 </wgt>
<wgt id='1548'> +7.3452416e+04 </wgt>
<wgt id='1549'> +7.4238127e+04 </wgt>
<wgt id='1550'> +7.4720511e+04 </wgt>
<wgt id='1551'> +7.3636567e+04 </wgt>
<wgt id='1552'> +7.3825360e+04 </wgt>
<wgt id='1553'> +7.4323379e+04 </wgt>
<wgt id='1554'> +7.3268672e+04 </wgt>
<wgt id='1555'> +7.1977734e+04 </wgt>
<wgt id='1556'> +7.0999719e+04 </wgt>
<wgt id='1557'> +7.3305873e+04 </wgt>
<wgt id='1558'> +7.2971888e+04 </wgt>
<wgt id='1559'> +7.4516864e+04 </wgt>
<wgt id='1560'> +7.5039735e+04 </wgt>
<wgt id='1561'> +7.4990531e+04 </wgt>
<wgt id='1562'> +7.3152440e+04 </wgt>
<wgt id='1563'> +7.4446976e+04 </wgt>
<wgt id='1564'> +7.3724388e+04 </wgt>
<wgt id='1565'> +7.5391823e+04 </wgt>
<wgt id='1566'> +7.1565594e+04 </wgt>
<wgt id='1567'> +7.3656656e+04 </wgt>
<wgt id='1568'> +7.3278673e+04 </wgt>
<wgt id='1569'> +7.3288912e+04 </wgt>
<wgt id='1570'> +7.3499574e+04 </wgt>
<wgt id='1571'> +7.2607577e+04 </wgt>
<wgt id='1572'> +7.2235007e+04 </wgt>
<wgt id='1573'> +7.3417826e+04 </wgt>
<wgt id='1574'> +7.0549333e+04 </wgt>
<wgt id='1575'> +7.3328960e+04 </wgt>
<wgt id='1576'> +7.3687106e+04 </wgt>
<wgt id='1577'> +7.0584130e+04 </wgt>
<wgt id='1578'> +7.3836679e+04 </wgt>
<wgt id='1579'> +7.1908003e+04 </wgt>
<wgt id='1580'> +7.3434818e+04 </wgt>
<wgt id='1581'> +7.5320303e+04 </wgt>
<wgt id='1582'> +7.3914545e+04 </wgt>
<wgt id='1583'> +7.4327129e+04 </wgt>
<wgt id='1584'> +7.2197742e+04 </wgt>
<wgt id='1585'> +7.3528946e+04 </wgt>
<wgt id='1586'> +7.0431670e+04 </wgt>
<wgt id='1587'> +7.3212445e+04 </wgt>
<wgt id='1588'> +7.3255537e+04 </wgt>
<wgt id='1589'> +7.3204357e+04 </wgt>
<wgt id='1590'> +7.3395173e+04 </wgt>
<wgt id='1591'> +7.3749310e+04 </wgt>
<wgt id='1592'> +7.3784497e+04 </wgt>
<wgt id='1593'> +7.3904709e+04 </wgt>
<wgt id='1594'> +7.3122477e+04 </wgt>
<wgt id='1595'> +7.3126671e+04 </wgt>
<wgt id='1596'> +7.3965279e+04 </wgt>
<wgt id='1597'> +7.4068757e+04 </wgt>
<wgt id='1598'> +7.2962703e+04 </wgt>
<wgt id='1599'> +7.4318840e+04 </wgt>
<wgt id='1600'> +7.1636296e+04 </wgt>
<wgt id='1601'> +7.6065494e+04 </wgt>
<wgt id='1602'> +7.1838482e+04 </wgt>
<wgt id='1603'> +7.5723786e+04 </wgt>
<wgt id='1604'> +7.4891395e+04 </wgt>
<wgt id='1605'> +7.3992840e+04 </wgt>
<wgt id='1606'> +7.3295818e+04 </wgt>
<wgt id='1607'> +7.3843669e+04 </wgt>
<wgt id='1608'> +7.3257665e+04 </wgt>
<wgt id='1609'> +7.3705822e+04 </wgt>
<wgt id='1610'> +7.4655991e+04 </wgt>
<wgt id='1611'> +7.2938943e+04 </wgt>
<wgt id='1612'> +7.5276482e+04 </wgt>
<wgt id='1613'> +7.1279791e+04 </wgt>
<wgt id='1614'> +7.4205692e+04 </wgt>
<wgt id='1615'> +7.3467959e+04 </wgt>
<wgt id='1616'> +7.3753208e+04 </wgt>
<wgt id='1617'> +7.3385998e+04 </wgt>
<wgt id='1618'> +7.3813717e+04 </wgt>
<wgt id='1619'> +7.4347240e+04 </wgt>
<wgt id='1620'> +7.3502699e+04 </wgt>
<wgt id='1621'> +7.3992007e+04 </wgt>
<wgt id='1622'> +7.3748051e+04 </wgt>
<wgt id='1623'> +7.2821828e+04 </wgt>
<wgt id='1624'> +7.4168564e+04 </wgt>
<wgt id='1625'> +7.3134581e+04 </wgt>
<wgt id='1626'> +7.3145030e+04 </wgt>
<wgt id='1627'> +7.4032908e+04 </wgt>
<wgt id='1628'> +7.4354900e+04 </wgt>
<wgt id='1629'> +7.3503795e+04 </wgt>
<wgt id='1630'> +7.3716579e+04 </wgt>
<wgt id='1631'> +7.3406008e+04 </wgt>
<wgt id='1632'> +7.4328210e+04 </wgt>
<wgt id='1633'> +7.2954763e+04 </wgt>
<wgt id='1634'> +7.4806936e+04 </wgt>
<wgt id='1635'> +7.2698331e+04 </wgt>
<wgt id='1636'> +7.3093987e+04 </wgt>
<wgt id='1637'> +7.4311254e+04 </wgt>
<wgt id='1638'> +7.3890487e+04 </wgt>
<wgt id='1639'> +7.3945652e+04 </wgt>
<wgt id='1640'> +7.4779195e+04 </wgt>
<wgt id='1641'> +7.2695881e+04 </wgt>
<wgt id='1642'> +7.2724773e+04 </wgt>
<wgt id='1643'> +7.4792191e+04 </wgt>
<wgt id='1644'> +7.5110634e+04 </wgt>
<wgt id='1645'> +7.2019222e+04 </wgt>
<wgt id='1646'> +7.4550850e+04 </wgt>
<wgt id='1647'> +7.3293958e+04 </wgt>
<wgt id='1648'> +7.4031446e+04 </wgt>
<wgt id='1649'> +7.3278924e+04 </wgt>
<wgt id='1650'> +7.3793472e+04 </wgt>
<wgt id='1651'> +7.4036639e+04 </wgt>
<wgt id='1652'> +7.3731691e+04 </wgt>
<wgt id='1653'> +7.3811271e+04 </wgt>
<wgt id='1654'> +7.4015879e+04 </wgt>
<wgt id='1655'> +7.4154831e+04 </wgt>
<wgt id='1656'> +7.4283359e+04 </wgt>
<wgt id='1657'> +7.3676588e+04 </wgt>
<wgt id='1658'> +7.3542835e+04 </wgt>
<wgt id='1659'> +7.5188360e+04 </wgt>
<wgt id='1660'> +7.4432022e+04 </wgt>
<wgt id='1661'> +7.5357529e+04 </wgt>
<wgt id='1662'> +7.2688859e+04 </wgt>
<wgt id='1663'> +7.3021843e+04 </wgt>
<wgt id='1664'> +7.3969768e+04 </wgt>
<wgt id='1665'> +7.3772691e+04 </wgt>
<wgt id='1666'> +7.4569911e+04 </wgt>
<wgt id='1667'> +7.4396262e+04 </wgt>
<wgt id='1668'> +7.4266949e+04 </wgt>
<wgt id='1669'> +7.5591335e+04 </wgt>
<wgt id='1670'> +7.2514843e+04 </wgt>
<wgt id='1671'> +7.4849179e+04 </wgt>
<wgt id='1672'> +7.4207722e+04 </wgt>
<wgt id='1673'> +7.4627876e+04 </wgt>
<wgt id='1674'> +7.4519821e+04 </wgt>
<wgt id='1675'> +7.4568198e+04 </wgt>
<wgt id='1676'> +7.3911225e+04 </wgt>
<wgt id='1677'> +7.4245813e+04 </wgt>
<wgt id='1678'> +7.4951172e+04 </wgt>
<wgt id='1679'> +7.3449311e+04 </wgt>
<wgt id='1680'> +7.5436848e+04 </wgt>
<wgt id='1681'> +7.4742056e+04 </wgt>
<wgt id='1682'> +7.3273624e+04 </wgt>
<wgt id='1683'> +7.4208627e+04 </wgt>
<wgt id='1684'> +7.4208313e+04 </wgt>
<wgt id='1685'> +7.4422739e+04 </wgt>
<wgt id='1686'> +7.3526078e+04 </wgt>
<wgt id='1687'> +7.5223436e+04 </wgt>
<wgt id='1688'> +7.2602352e+04 </wgt>
<wgt id='1689'> +7.4406260e+04 </wgt>
<wgt id='1690'> +7.4705441e+04 </wgt>
<wgt id='1691'> +7.3700663e+04 </wgt>
<wgt id='1692'> +7.4126213e+04 </wgt>
<wgt id='1693'> +7.6077898e+04 </wgt>
<wgt id='1694'> +7.2965173e+04 </wgt>
<wgt id='1695'> +7.4061242e+04 </wgt>
<wgt id='1696'> +7.3698425e+04 </wgt>
<wgt id='1697'> +7.4740118e+04 </wgt>
<wgt id='1698'> +7.3553329e+04 </wgt>
<wgt id='1699'> +7.2913497e+04 </wgt>
<wgt id='1700'> +7.5904173e+04 </wgt>
<wgt id='1701'> +7.2682034e+04 </wgt>
<wgt id='1702'> +7.5967181e+04 </wgt>
<wgt id='1703'> +7.4540664e+04 </wgt>
<wgt id='1704'> +7.4403096e+04 </wgt>
<wgt id='1705'> +7.4547136e+04 </wgt>
<wgt id='1706'> +7.3922672e+04 </wgt>
<wgt id='1707'> +7.3074773e+04 </wgt>
<wgt id='1708'> +7.5235476e+04 </wgt>
<wgt id='1709'> +7.4752539e+04 </wgt>
<wgt id='1710'> +7.3766739e+04 </wgt>
<wgt id='1711'> +7.4009754e+04 </wgt>
<wgt id='1712'> +7.3569424e+04 </wgt>
<wgt id='1713'> +7.3730999e+04 </wgt>
<wgt id='1714'> +7.4456317e+04 </wgt>
<wgt id='1715'> +7.1847095e+04 </wgt>
<wgt id='1716'> +7.4754882e+04 </wgt>
<wgt id='1717'> +6.9224015e+04 </wgt>
<wgt id='1718'> +6.9108944e+04 </wgt>
<wgt id='1719'> +6.9369906e+04 </wgt>
<wgt id='1720'> +6.8862127e+04 </wgt>
<wgt id='1721'> +6.9554915e+04 </wgt>
<wgt id='1722'> +6.9050366e+04 </wgt>
<wgt id='1723'> +6.9508568e+04 </wgt>
<wgt id='1724'> +6.9539527e+04 </wgt>
<wgt id='1725'> +6.8967825e+04 </wgt>
<wgt id='1726'> +6.9228907e+04 </wgt>
<wgt id='1727'> +6.9218749e+04 </wgt>
<wgt id='1728'> +6.8471559e+04 </wgt>
<wgt id='1729'> +6.9954995e+04 </wgt>
<wgt id='1730'> +6.9493842e+04 </wgt>
<wgt id='1731'> +6.9032198e+04 </wgt>
<wgt id='1732'> +6.9602030e+04 </wgt>
<wgt id='1733'> +6.9602030e+04 </wgt>
<wgt id='1734'> +6.9004752e+04 </wgt>
<wgt id='1735'> +6.9371054e+04 </wgt>
<wgt id='1736'> +6.8834850e+04 </wgt>
<wgt id='1737'> +6.9767822e+04 </wgt>
<wgt id='1738'> +6.9240327e+04 </wgt>
<wgt id='1739'> +6.9161107e+04 </wgt>
<wgt id='1740'> +6.9220916e+04 </wgt>
<wgt id='1741'> +6.9229113e+04 </wgt>
<wgt id='1742'> +6.9056549e+04 </wgt>
<wgt id='1743'> +6.9418362e+04 </wgt>
<wgt id='1744'> +6.9419369e+04 </wgt>
<wgt id='1745'> +6.8690740e+04 </wgt>
<wgt id='1746'> +6.8755891e+04 </wgt>
<wgt id='1747'> +6.9481730e+04 </wgt>
<wgt id='1748'> +6.9429591e+04 </wgt>
<wgt id='1749'> +6.8583337e+04 </wgt>
<wgt id='1750'> +6.9286926e+04 </wgt>
<wgt id='1751'> +6.9157529e+04 </wgt>
<wgt id='1752'> +6.9232419e+04 </wgt>
<wgt id='1753'> +6.9226110e+04 </wgt>
<wgt id='1754'> +6.9510935e+04 </wgt>
<wgt id='1755'> +6.9062319e+04 </wgt>
<wgt id='1756'> +6.8722253e+04 </wgt>
<wgt id='1757'> +7.0449684e+04 </wgt>
<wgt id='1758'> +6.9711565e+04 </wgt>
<wgt id='1759'> +6.8702192e+04 </wgt>
<wgt id='1760'> +6.9460169e+04 </wgt>
<wgt id='1761'> +6.8983758e+04 </wgt>
<wgt id='1762'> +6.9072710e+04 </wgt>
<wgt id='1763'> +6.9357209e+04 </wgt>
<wgt id='1764'> +6.9183933e+04 </wgt>
<wgt id='1765'> +6.9414036e+04 </wgt>
<wgt id='1766'> +6.9216032e+04 </wgt>
<wgt id='1767'> +6.9196045e+04 </wgt>
<wgt id='1768'> +6.9167451e+04 </wgt>
<wgt id='1769'> +6.9253464e+04 </wgt>
<wgt id='1770'> +6.8846489e+04 </wgt>
<wgt id='1771'> +6.9386969e+04 </wgt>
<wgt id='1772'> +6.9232854e+04 </wgt>
<wgt id='1773'> +6.9332697e+04 </wgt>
<wgt id='1774'> +6.8364645e+04 </wgt>
<wgt id='1775'> +6.9770832e+04 </wgt>
<wgt id='1776'> +6.8822527e+04 </wgt>
<wgt id='1777'> +6.9410129e+04 </wgt>
<wgt id='1778'> +6.8838856e+04 </wgt>
<wgt id='1779'> +6.9028399e+04 </wgt>
<wgt id='1780'> +7.0047205e+04 </wgt>
<wgt id='1781'> +6.9330290e+04 </wgt>
<wgt id='1782'> +6.9224015e+04 </wgt>
<wgt id='1783'> +6.9309534e+04 </wgt>
<wgt id='1784'> +7.1540595e+04 </wgt>
<wgt id='1785'> +7.1618094e+04 </wgt>
<wgt id='1786'> +6.9303988e+04 </wgt>
<wgt id='1787'> +7.1466529e+04 </wgt>
<wgt id='1788'> +7.1633898e+04 </wgt>
<wgt id='1789'> +7.1724442e+04 </wgt>
<wgt id='1790'> +7.1447257e+04 </wgt>
<wgt id='1791'> +7.1703467e+04 </wgt>
<wgt id='1792'> +7.0751199e+04 </wgt>
<wgt id='1793'> +7.1882347e+04 </wgt>
<wgt id='1794'> +7.1727452e+04 </wgt>
<wgt id='1795'> +7.1337639e+04 </wgt>
<wgt id='1796'> +7.1622075e+04 </wgt>
<wgt id='1797'> +7.1884519e+04 </wgt>
<wgt id='1798'> +7.1749047e+04 </wgt>
<wgt id='1799'> +7.1959288e+04 </wgt>
<wgt id='1800'> +7.2115284e+04 </wgt>
<wgt id='1801'> +7.2386165e+04 </wgt>
<wgt id='1802'> +7.2261185e+04 </wgt>
<wgt id='1803'> +7.1716148e+04 </wgt>
<wgt id='1804'> +7.1557665e+04 </wgt>
<wgt id='1805'> +7.0969637e+04 </wgt>
<wgt id='1806'> +7.1570494e+04 </wgt>
<wgt id='1807'> +7.1680980e+04 </wgt>
<wgt id='1808'> +7.1628960e+04 </wgt>
<wgt id='1809'> +7.0930957e+04 </wgt>
<wgt id='1810'> +7.1493271e+04 </wgt>
<wgt id='1811'> +7.1414945e+04 </wgt>
<wgt id='1812'> +7.1482013e+04 </wgt>
<wgt id='1813'> +7.0893143e+04 </wgt>
<wgt id='1814'> +7.1740483e+04 </wgt>
<wgt id='1815'> +7.1416628e+04 </wgt>
<wgt id='1816'> +7.1607452e+04 </wgt>
<wgt id='1817'> +7.1504727e+04 </wgt>
<wgt id='1818'> +7.1598651e+04 </wgt>
<wgt id='1819'> +7.1431336e+04 </wgt>
<wgt id='1820'> +7.1511895e+04 </wgt>
<wgt id='1821'> +7.1380004e+04 </wgt>
<wgt id='1822'> +7.1599617e+04 </wgt>
<wgt id='1823'> +7.1526220e+04 </wgt>
<wgt id='1824'> +7.1990896e+04 </wgt>
<wgt id='1825'> +7.0898822e+04 </wgt>
<wgt id='1826'> +7.2668803e+04 </wgt>
<wgt id='1827'> +7.3408041e+04 </wgt>
<wgt id='1828'> +7.3556453e+04 </wgt>
<wgt id='1829'> +7.3251871e+04 </wgt>
<wgt id='1830'> +7.3276849e+04 </wgt>
<wgt id='1831'> +7.3530932e+04 </wgt>
<wgt id='1832'> +7.3457087e+04 </wgt>
<wgt id='1833'> +7.3350535e+04 </wgt>
<wgt id='1834'> +7.3072088e+04 </wgt>
<wgt id='1835'> +7.3723201e+04 </wgt>
<wgt id='1836'> +7.3686743e+04 </wgt>
<wgt id='1837'> +7.3117498e+04 </wgt>
<wgt id='1838'> +7.3536418e+04 </wgt>
<wgt id='1839'> +7.3250323e+04 </wgt>
<wgt id='1840'> +7.3264715e+04 </wgt>
<wgt id='1841'> +7.3541939e+04 </wgt>
<wgt id='1842'> +7.3347729e+04 </wgt>
<wgt id='1843'> +7.3452033e+04 </wgt>
<wgt id='1844'> +7.3193234e+04 </wgt>
<wgt id='1845'> +7.3597019e+04 </wgt>
<wgt id='1846'> +7.2797046e+04 </wgt>
<wgt id='1847'> +7.3950307e+04 </wgt>
<wgt id='1848'> +7.3394334e+04 </wgt>
<wgt id='1849'> +7.3339944e+04 </wgt>
<wgt id='1850'> +7.3959310e+04 </wgt>
<wgt id='1851'> +7.2869206e+04 </wgt>
<wgt id='1852'> +7.4123708e+04 </wgt>
<wgt id='1853'> +7.2648008e+04 </wgt>
<wgt id='1854'> +7.3978154e+04 </wgt>
<wgt id='1855'> +7.2884082e+04 </wgt>
<wgt id='1856'> +7.1195936e+04 </wgt>
<wgt id='1857'> +7.1182809e+04 </wgt>
<wgt id='1858'> +7.1112680e+04 </wgt>
<wgt id='1859'> +7.1244716e+04 </wgt>
<wgt id='1860'> +7.1198481e+04 </wgt>
<wgt id='1861'> +7.1322967e+04 </wgt>
<wgt id='1862'> +7.0852666e+04 </wgt>
<wgt id='1863'> +7.1377527e+04 </wgt>
<wgt id='1864'> +7.1004886e+04 </wgt>
<wgt id='1865'> +7.0925757e+04 </wgt>
<wgt id='1866'> +7.1171918e+04 </wgt>
<wgt id='1867'> +7.1157285e+04 </wgt>
<wgt id='1868'> +7.1289698e+04 </wgt>
<wgt id='1869'> +7.1291094e+04 </wgt>
<wgt id='1870'> +7.1106439e+04 </wgt>
<wgt id='1871'> +7.1141466e+04 </wgt>
<wgt id='1872'> +7.1006729e+04 </wgt>
<wgt id='1873'> +7.1100805e+04 </wgt>
<wgt id='1874'> +7.1043107e+04 </wgt>
<wgt id='1875'> +7.1272460e+04 </wgt>
<wgt id='1876'> +7.1076876e+04 </wgt>
<wgt id='1877'> +7.0890415e+04 </wgt>
<wgt id='1878'> +7.1176426e+04 </wgt>
<wgt id='1879'> +7.1676083e+04 </wgt>
<wgt id='1880'> +7.1494025e+04 </wgt>
<wgt id='1881'> +7.1090473e+04 </wgt>
<wgt id='1882'> +7.1033626e+04 </wgt>
<wgt id='1883'> +7.1397619e+04 </wgt>
<wgt id='1884'> +7.0476018e+04 </wgt>
<wgt id='1885'> +7.0680352e+04 </wgt>
<wgt id='1886'> +7.8517924e+04 </wgt>
<wgt id='1887'> +8.4084633e+04 </wgt>
<wgt id='1888'> +6.4490767e+04 </wgt>
<wgt id='1889'> +7.6350821e+04 </wgt>
</rwgt>
</event>
<event npLO=" -1 " npNLO=" 0 ">
 6      0 +7.4519530e+04 3.00000000e+01 7.55820760e-03 1.19406400e-01
        2 -1    0    0  501    0 +0.0000000000e+00 +0.0000000000e+00 +2.0145057675e+01 2.0145057675e+01 0.0000000000e+00 0.0000e+00 -1.0000e+00
       21 -1    0    0  502  501 +0.0000000000e+00 +0.0000000000e+00 -1.1652626244e+02 1.1652626244e+02 0.0000000000e+00 0.0000e+00 1.0000e+00
       24  2    1    2    0    0 +1.2427843131e+01 +7.2148635242e-01 -8.1970004489e+01 1.1762782987e+02 8.3440115627e+01 0.0000e+00 0.0000e+00
      -13  1    3    3    0    0 +2.6072236791e+01 -1.2244524097e+01 -9.1926889228e+01 9.6334017174e+01 0.0000000000e+00 0.0000e+00 1.0000e+00
       14  1    3    3    0    0 -1.3644393660e+01 +1.2966010449e+01 +9.9568847390e+00 2.1293812693e+01 0.0000000000e+00 0.0000e+00 -1.0000e+00
        1  1    1    2  502    0 -1.2427843131e+01 -7.2148635242e-01 -1.4411200278e+01 1.9043490250e+01 0.0000000000e+00 0.0000e+00 -1.0000e+00
#aMCatNLO 2  0  0  2  1 0.16706084E+02 0.00000000E+00 -9  5  0 0.00000000E+00 0.00000000E+00 0.00000000E+00 0.00000000E+00 0.00000000E+00
<rwgt>
<wgt id='1001'> +7.4519530e+04 </wgt>
<wgt id='1002'> +6.7390542e+04 </wgt>
<wgt id='1003'> +8.3387123e+04 </wgt>
<wgt id='1004'> +8.0506262e+04 </wgt>
<wgt id='1005'> +7.2804540e+04 </wgt>
<wgt id='1006'> +9.0086249e+04 </wgt>
<wgt id='1007'> +6.7354262e+04 </wgt>
<wgt id='1008'> +6.0910740e+04 </wgt>
<wgt id='1009'> +7.5369203e+04 </wgt>
<wgt id='1010'> +7.4519530e+04 </wgt>
<wgt id='1011'> +7.4518916e+04 </wgt>
<wgt id='1012'> +7.4356995e+04 </wgt>
<wgt id='1013'> +7.4447722e+04 </wgt>
<wgt id='1014'> +7.4884111e+04 </wgt>
<wgt id='1015'> +7.4455650e+04 </wgt>
<wgt id='1016'> +7.4687587e+04 </wgt>
<wgt id='1017'> +7.4989057e+04 </wgt>
<wgt id='1018'> +7.4868660e+04 </wgt>
<wgt id='1019'> +7.4633421e+04 </wgt>
<wgt id='1020'> +7.4364159e+04 </wgt>
<wgt id='1021'> +7.4115848e+04 </wgt>
<wgt id='1022'> +7.4796885e+04 </wgt>
<wgt id='1023'> +7.4563237e+04 </wgt>
<wgt id='1024'> +7.4554441e+04 </wgt>
<wgt id='1025'> +7.4745976e+04 </wgt>
<wgt id='1026'> +7.4308835e+04 </wgt>
<wgt id='1027'> +7.4319205e+04 </wgt>
<wgt id='1028'> +7.4466737e+04 </wgt>
<wgt id='1029'> +7.4623816e+04 </wgt>
<wgt id='1030'> +7.4295260e+04 </wgt>
<wgt id='1031'> +7.4658466e+04 </wgt>
<wgt id='1032'> +7.4665062e+04 </wgt>
<wgt id='1033'> +7.4405399e+04 </wgt>
<wgt id='1034'> +7.4273481e+04 </wgt>
<wgt id='1035'> +7.4482386e+04 </wgt>
<wgt id='1036'> +7.4376091e+04 </wgt>
<wgt id='1037'> +7.4738749e+04 </wgt>
<wgt id='1038'> +7.4537120e+04 </wgt>
<wgt id='1039'> +7.4466106e+04 </wgt>
<wgt id='1040'> +7.4672857e+04 </wgt>
<wgt id='1041'> +7.4453600e+04 </wgt>
<wgt id='1042'> +7.4410914e+04 </wgt>
<wgt id='1043'> +7.4494326e+04 </wgt>
<wgt id='1044'> +7.4475876e+04 </wgt>
<wgt id='1045'> +7.4520612e+04 </wgt>
<wgt id='1046'> +7.4772152e+04 </wgt>
<wgt id='1047'> +7.4478749e+04 </wgt>
<wgt id='1048'> +7.4690662e+04 </wgt>
<wgt id='1049'> +7.4587953e+04 </wgt>
<wgt id='1050'> +7.4597249e+04 </wgt>
<wgt id='1051'> +7.4631919e+04 </wgt>
<wgt id='1052'> +7.4622027e+04 </wgt>
<wgt id='1053'> +7.4419064e+04 </wgt>
<wgt id='1054'> +7.4503788e+04 </wgt>
<wgt id='1055'> +7.4607806e+04 </wgt>
<wgt id='1056'> +7.4565918e+04 </wgt>
<wgt id='1057'> +7.4464376e+04 </wgt>
<wgt id='1058'> +7.4517861e+04 </wgt>
<wgt id='1059'> +7.4486130e+04 </wgt>
<wgt id='1060'> +7.4515261e+04 </wgt>
<wgt id='1061'> +7.4514775e+04 </wgt>
<wgt id='1062'> +7.4406021e+04 </wgt>
<wgt id='1063'> +7.4529789e+04 </wgt>
<wgt id='1064'> +7.4552716e+04 </wgt>
<wgt id='1065'> +7.4566683e+04 </wgt>
<wgt id='1066'> +7.4514180e+04 </wgt>
<wgt id='1067'> +7.4511248e+04 </wgt>
<wgt id='1068'> +7.4367688e+04 </wgt>
<wgt id='1069'> +7.4614539e+04 </wgt>
<wgt id='1070'> +7.4525786e+04 </wgt>
<wgt id='1071'> +7.4544452e+04 </wgt>
<wgt id='1072'> +7.4585777e+04 </wgt>
<wgt id='1073'> +7.4516120e+04 </wgt>
<wgt id='1074'> +7.4490684e+04 </wgt>
<wgt id='1075'> +7.4550379e+04 </wgt>
<wgt id='1076'> +7.4492170e+04 </wgt>
<wgt id='1077'> +7.4585796e+04 </wgt>
<wgt id='1078'> +7.4525698e+04 </wgt>
<wgt id='1079'> +7.4493035e+04 </wgt>
<wgt id='1080'> +7.4531349e+04 </wgt>
<wgt id='1081'> +7.4553753e+04 </wgt>
<wgt id='1082'> +7.4480359e+04 </wgt>
<wgt id='1083'> +7.4564900e+04 </wgt>
<wgt id='1084'> +7.4544169e+04 </wgt>
<wgt id='1085'> +7.4509232e+04 </wgt>
<wgt id='1086'> +7.4541031e+04 </wgt>
<wgt id='1087'> +7.4533102e+04 </wgt>
<wgt id='1088'> +7.4530488e+04 </wgt>
<wgt id='1089'> +7.4530171e+04 </wgt>
<wgt id='1090'> +7.4523439e+04 </wgt>
<wgt id='1091'> +7.4532352e+04 </wgt>
<wgt id='1092'> +7.4521138e+04 </wgt>
<wgt id='1093'> +7.4526625e+04 </wgt>
<wgt id='1094'> +7.4519612e+04 </wgt>
<wgt id='1095'> +7.4527864e+04 </wgt>
<wgt id='1096'> +7.4520546e+04 </wgt>
<wgt id='1097'> +7.4509432e+04 </wgt>
<wgt id='1098'> +7.4528063e+04 </wgt>
<wgt id='1099'> +7.4504699e+04 </wgt>
<wgt id='1100'> +7.4540124e+04 </wgt>
<wgt id='1101'> +7.4513135e+04 </wgt>
<wgt id='1102'> +7.4514130e+04 </wgt>
<wgt id='1103'> +7.4492666e+04 </wgt>
<wgt id='1104'> +7.4519438e+04 </wgt>
<wgt id='1105'> +7.4525621e+04 </wgt>
<wgt id='1106'> +7.4520222e+04 </wgt>
<wgt id='1107'> +7.4519406e+04 </wgt>
<wgt id='1108'> +7.4507641e+04 </wgt>
<wgt id='1109'> +7.4514495e+04 </wgt>
<wgt id='1110'> +7.4519538e+04 </wgt>
<wgt id='1111'> +7.3535210e+04 </wgt>
<wgt id='1112'> +7.5315683e+04 </wgt>
<wgt id='1113'> +7.4519538e+04 </wgt>
<wgt id='1114'> +7.4956356e+04 </wgt>
<wgt id='1115'> +7.3260192e+04 </wgt>
<wgt id='1116'> +7.4841299e+04 </wgt>
<wgt id='1117'> +7.4309968e+04 </wgt>
<wgt id='1118'> +7.5328419e+04 </wgt>
<wgt id='1119'> +7.5265389e+04 </wgt>
<wgt id='1120'> +7.3475180e+04 </wgt>
<wgt id='1121'> +7.3120960e+04 </wgt>
<wgt id='1122'> +7.3784941e+04 </wgt>
<wgt id='1123'> +7.5621961e+04 </wgt>
<wgt id='1124'> +7.6045812e+04 </wgt>
<wgt id='1125'> +7.2237773e+04 </wgt>
<wgt id='1126'> +7.4123099e+04 </wgt>
<wgt id='1127'> +7.4506601e+04 </wgt>
<wgt id='1128'> +7.5877569e+04 </wgt>
<wgt id='1129'> +7.5350611e+04 </wgt>
<wgt id='1130'> +7.6304154e+04 </wgt>
<wgt id='1131'> +7.3595141e+04 </wgt>
<wgt id='1132'> +7.4166295e+04 </wgt>
<wgt id='1133'> +7.4343228e+04 </wgt>
<wgt id='1134'> +7.2085481e+04 </wgt>
<wgt id='1135'> +7.4752773e+04 </wgt>
<wgt id='1136'> +7.4231448e+04 </wgt>
<wgt id='1137'> +7.2956712e+04 </wgt>
<wgt id='1138'> +7.2242420e+04 </wgt>
<wgt id='1139'> +7.5411128e+04 </wgt>
<wgt id='1140'> +7.6151289e+04 </wgt>
<wgt id='1141'> +7.3475324e+04 </wgt>
<wgt id='1142'> +7.5305772e+04 </wgt>
<wgt id='1143'> +7.5961156e+04 </wgt>
<wgt id='1144'> +7.5209944e+04 </wgt>
<wgt id='1145'> +7.3792614e+04 </wgt>
<wgt id='1146'> +7.4137972e+04 </wgt>
<wgt id='1147'> +7.2429234e+04 </wgt>
<wgt id='1148'> +7.7432793e+04 </wgt>
<wgt id='1149'> +7.3915222e+04 </wgt>
<wgt id='1150'> +7.4309287e+04 </wgt>
<wgt id='1151'> +7.4062422e+04 </wgt>
<wgt id='1152'> +7.4712547e+04 </wgt>
<wgt id='1153'> +7.4420459e+04 </wgt>
<wgt id='1154'> +7.5812606e+04 </wgt>
<wgt id='1155'> +7.3106098e+04 </wgt>
<wgt id='1156'> +7.5452207e+04 </wgt>
<wgt id='1157'> +7.4441754e+04 </wgt>
<wgt id='1158'> +7.4836125e+04 </wgt>
<wgt id='1159'> +7.5330621e+04 </wgt>
<wgt id='1160'> +7.3001467e+04 </wgt>
<wgt id='1161'> +7.3782445e+04 </wgt>
<wgt id='1162'> +7.5998448e+04 </wgt>
<wgt id='1163'> +7.5905264e+04 </wgt>
<wgt id='1164'> +7.4048817e+04 </wgt>
<wgt id='1165'> +7.2747035e+04 </wgt>
<wgt id='1166'> +7.5373238e+04 </wgt>
<wgt id='1167'> +7.3761475e+04 </wgt>
<wgt id='1168'> +7.4261387e+04 </wgt>
<wgt id='1169'> +7.4401838e+04 </wgt>
<wgt id='1170'> +7.4697736e+04 </wgt>
<wgt id='1171'> +7.2975464e+04 </wgt>
<wgt id='1172'> +7.6761165e+04 </wgt>
<wgt id='1173'> +7.4817178e+04 </wgt>
<wgt id='1174'> +7.4519366e+04 </wgt>
<wgt id='1175'> +7.3772829e+04 </wgt>
<wgt id='1176'> +7.5394166e+04 </wgt>
<wgt id='1177'> +7.4050268e+04 </wgt>
<wgt id='1178'> +7.4205140e+04 </wgt>
<wgt id='1179'> +7.5720240e+04 </wgt>
<wgt id='1180'> +7.4339070e+04 </wgt>
<wgt id='1181'> +7.5515802e+04 </wgt>
<wgt id='1182'> +7.3142051e+04 </wgt>
<wgt id='1183'> +7.2091166e+04 </wgt>
<wgt id='1184'> +7.5648947e+04 </wgt>
<wgt id='1185'> +7.7479616e+04 </wgt>
<wgt id='1186'> +7.3359539e+04 </wgt>
<wgt id='1187'> +7.5538049e+04 </wgt>
<wgt id='1188'> +7.5114142e+04 </wgt>
<wgt id='1189'> +7.7959873e+04 </wgt>
<wgt id='1190'> +7.2610363e+04 </wgt>
<wgt id='1191'> +7.4323645e+04 </wgt>
<wgt id='1192'> +7.4536194e+04 </wgt>
<wgt id='1193'> +7.5771140e+04 </wgt>
<wgt id='1194'> +7.2820983e+04 </wgt>
<wgt id='1195'> +7.5350611e+04 </wgt>
<wgt id='1196'> +7.4790276e+04 </wgt>
<wgt id='1197'> +7.4520867e+04 </wgt>
<wgt id='1198'> +7.4448938e+04 </wgt>
<wgt id='1199'> +7.3577155e+04 </wgt>
<wgt id='1200'> +7.5005231e+04 </wgt>
<wgt id='1201'> +7.6386217e+04 </wgt>
<wgt id='1202'> +7.4345779e+04 </wgt>
<wgt id='1203'> +7.3120732e+04 </wgt>
<wgt id='1204'> +7.3268370e+04 </wgt>
<wgt id='1205'> +7.5633673e+04 </wgt>
<wgt id='1206'> +7.5374883e+04 </wgt>
<wgt id='1207'> +7.5268651e+04 </wgt>
<wgt id='1208'> +7.2241370e+04 </wgt>
<wgt id='1209'> +7.3934366e+04 </wgt>
<wgt id='1210'> +7.4996016e+04 </wgt>
<wgt id='1211'> +7.5025013e+04 </wgt>
<wgt id='1212'> +7.4159360e+04 </wgt>
<wgt id='1213'> +7.3572200e+04 </wgt>
<wgt id='1214'> +7.4496666e+04 </wgt>
<wgt id='1215'> +7.0684432e+04 </wgt>
<wgt id='1216'> +7.1119816e+04 </wgt>
<wgt id='1217'> +7.1846877e+04 </wgt>
<wgt id='1218'> +7.2934511e+04 </wgt>
<wgt id='1219'> +7.4196871e+04 </wgt>
<wgt id='1220'> +7.5110361e+04 </wgt>
<wgt id='1221'> +7.5816967e+04 </wgt>
<wgt id='1222'> +7.6776609e+04 </wgt>
<wgt id='1223'> +7.4342158e+04 </wgt>
<wgt id='1224'> +7.4440487e+04 </wgt>
<wgt id='1225'> +7.4248737e+04 </wgt>
<wgt id='1226'> +7.4490255e+04 </wgt>
<wgt id='1227'> +7.4771028e+04 </wgt>
<wgt id='1228'> +7.4580189e+04 </wgt>
<wgt id='1229'> +7.4285159e+04 </wgt>
<wgt id='1230'> +7.4503533e+04 </wgt>
<wgt id='1231'> +7.4034026e+04 </wgt>
<wgt id='1232'> +7.4445852e+04 </wgt>
<wgt id='1233'> +7.3801326e+04 </wgt>
<wgt id='1234'> +7.4381144e+04 </wgt>
<wgt id='1235'> +7.4780392e+04 </wgt>
<wgt id='1236'> +7.4004399e+04 </wgt>
<wgt id='1237'> +7.4744975e+04 </wgt>
<wgt id='1238'> +7.4213417e+04 </wgt>
<wgt id='1239'> +7.4421552e+04 </wgt>
<wgt id='1240'> +7.4511013e+04 </wgt>
<wgt id='1241'> +7.4543441e+04 </wgt>
<wgt id='1242'> +7.4188044e+04 </wgt>
<wgt id='1243'> +7.4099302e+04 </wgt>
<wgt id='1244'> +7.4420432e+04 </wgt>
<wgt id='1245'> +7.4407201e+04 </wgt>
<wgt id='1246'> +7.4325498e+04 </wgt>
<wgt id='1247'> +7.4426996e+04 </wgt>
<wgt id='1248'> +7.4141144e+04 </wgt>
<wgt id='1249'> +7.4298440e+04 </wgt>
<wgt id='1250'> +7.4513475e+04 </wgt>
<wgt id='1251'> +7.4196262e+04 </wgt>
<wgt id='1252'> +7.4683982e+04 </wgt>
<wgt id='1253'> +7.4608025e+04 </wgt>
<wgt id='1254'> +7.4278741e+04 </wgt>
<wgt id='1255'> +7.4240014e+04 </wgt>
<wgt id='1256'> +7.4291438e+04 </wgt>
<wgt id='1257'> +7.4557571e+04 </wgt>
<wgt id='1258'> +7.4347203e+04 </wgt>
<wgt id='1259'> +7.4325726e+04 </wgt>
<wgt id='1260'> +7.4305082e+04 </wgt>
<wgt id='1261'> +7.4382477e+04 </wgt>
<wgt id='1262'> +7.4224285e+04 </wgt>
<wgt id='1263'> +7.4241272e+04 </wgt>
<wgt id='1264'> +7.4249276e+04 </wgt>
<wgt id='1265'> +7.4353751e+04 </wgt>
<wgt id='1266'> +7.4278050e+04 </wgt>
<wgt id='1267'> +7.4314880e+04 </wgt>
<wgt id='1268'> +7.4463379e+04 </wgt>
<wgt id='1269'> +7.4311571e+04 </wgt>
<wgt id='1270'> +7.4278757e+04 </wgt>
<wgt id='1271'> +7.4241256e+04 </wgt>
<wgt id='1272'> +7.4292060e+04 </wgt>
<wgt id='1273'> +7.4374491e+04 </wgt>
<wgt id='1274'> +7.4437712e+04 </wgt>
<wgt id='1275'> +7.4264746e+04 </wgt>
<wgt id='1276'> +7.4364219e+04 </wgt>
<wgt id='1277'> +7.4321265e+04 </wgt>
<wgt id='1278'> +7.4278049e+04 </wgt>
<wgt id='1279'> +7.4285573e+04 </wgt>
<wgt id='1280'> +7.4371775e+04 </wgt>
<wgt id='1281'> +7.4400273e+04 </wgt>
<wgt id='1282'> +7.4348493e+04 </wgt>
<wgt id='1283'> +7.4314074e+04 </wgt>
<wgt id='1284'> +7.4315060e+04 </wgt>
<wgt id='1285'> +7.4335950e+04 </wgt>
<wgt id='1286'> +7.4357151e+04 </wgt>
<wgt id='1287'> +7.4278536e+04 </wgt>
<wgt id='1288'> +7.4253356e+04 </wgt>
<wgt id='1289'> +7.4405208e+04 </wgt>
<wgt id='1290'> +7.4342556e+04 </wgt>
<wgt id='1291'> +7.4302727e+04 </wgt>
<wgt id='1292'> +7.4428131e+04 </wgt>
<wgt id='1293'> +7.4311737e+04 </wgt>
<wgt id='1294'> +7.4357221e+04 </wgt>
<wgt id='1295'> +7.4357314e+04 </wgt>
<wgt id='1296'> +7.4370084e+04 </wgt>
<wgt id='1297'> +7.4372007e+04 </wgt>
<wgt id='1298'> +7.4324901e+04 </wgt>
<wgt id='1299'> +7.4328310e+04 </wgt>
<wgt id='1300'> +7.4359332e+04 </wgt>
<wgt id='1301'> +7.4348090e+04 </wgt>
<wgt id='1302'> +7.4348044e+04 </wgt>
<wgt id='1303'> +7.4331162e+04 </wgt>
<wgt id='1304'> +7.4338560e+04 </wgt>
<wgt id='1305'> +7.4356051e+04 </wgt>
<wgt id='1306'> +7.4339652e+04 </wgt>
<wgt id='1307'> +7.4342115e+04 </wgt>
<wgt id='1308'> +7.4347652e+04 </wgt>
<wgt id='1309'> +7.4373045e+04 </wgt>
<wgt id='1310'> +7.4334182e+04 </wgt>
<wgt id='1311'> +7.4358564e+04 </wgt>
<wgt id='1312'> +7.4363377e+04 </wgt>
<wgt id='1313'> +7.4339244e+04 </wgt>
<wgt id='1314'> +7.4334657e+04 </wgt>
<wgt id='1315'> +7.4335043e+04 </wgt>
<wgt id='1316'> +7.4316564e+04 </wgt>
<wgt id='1317'> +7.4370021e+04 </wgt>
<wgt id='1318'> +7.4352497e+04 </wgt>
<wgt id='1319'> +7.4300736e+04 </wgt>
<wgt id='1320'> +7.4342405e+04 </wgt>
<wgt id='1321'> +7.4335870e+04 </wgt>
<wgt id='1322'> +7.4328294e+04 </wgt>
<wgt id='1323'> +7.4334231e+04 </wgt>
<wgt id='1324'> +7.3636782e+04 </wgt>
<wgt id='1325'> +7.5327642e+04 </wgt>
<wgt id='1326'> +7.2853171e+04 </wgt>
<wgt id='1327'> +7.0894989e+04 </wgt>
<wgt id='1328'> +7.3756217e+04 </wgt>
<wgt id='1329'> +7.4103910e+04 </wgt>
<wgt id='1330'> +7.3497796e+04 </wgt>
<wgt id='1331'> +7.3826900e+04 </wgt>
<wgt id='1332'> +7.3990835e+04 </wgt>
<wgt id='1333'> +7.3716811e+04 </wgt>
<wgt id='1334'> +7.4515944e+04 </wgt>
<wgt id='1335'> +7.3196794e+04 </wgt>
<wgt id='1336'> +7.4853965e+04 </wgt>
<wgt id='1337'> +7.3319913e+04 </wgt>
<wgt id='1338'> +7.4563614e+04 </wgt>
<wgt id='1339'> +7.4820874e+04 </wgt>
<wgt id='1340'> +7.3049676e+04 </wgt>
<wgt id='1341'> +7.3082169e+04 </wgt>
<wgt id='1342'> +7.3142321e+04 </wgt>
<wgt id='1343'> +7.4350557e+04 </wgt>
<wgt id='1344'> +7.3364502e+04 </wgt>
<wgt id='1345'> +7.4498002e+04 </wgt>
<wgt id='1346'> +7.2805422e+04 </wgt>
<wgt id='1347'> +7.5599612e+04 </wgt>
<wgt id='1348'> +7.3835817e+04 </wgt>
<wgt id='1349'> +7.4467820e+04 </wgt>
<wgt id='1350'> +7.4854612e+04 </wgt>
<wgt id='1351'> +7.4902053e+04 </wgt>
<wgt id='1352'> +7.2967615e+04 </wgt>
<wgt id='1353'> +7.4784874e+04 </wgt>
<wgt id='1354'> +7.4058427e+04 </wgt>
<wgt id='1355'> +7.3161385e+04 </wgt>
<wgt id='1356'> +7.2904039e+04 </wgt>
<wgt id='1357'> +7.3550891e+04 </wgt>
<wgt id='1358'> +7.3971925e+04 </wgt>
<wgt id='1359'> +7.3552564e+04 </wgt>
<wgt id='1360'> +7.4756865e+04 </wgt>
<wgt id='1361'> +7.4174337e+04 </wgt>
<wgt id='1362'> +7.4839475e+04 </wgt>
<wgt id='1363'> +7.4383127e+04 </wgt>
<wgt id='1364'> +7.4115404e+04 </wgt>
<wgt id='1365'> +7.2388568e+04 </wgt>
<wgt id='1366'> +7.3419008e+04 </wgt>
<wgt id='1367'> +7.4011766e+04 </wgt>
<wgt id='1368'> +7.5203218e+04 </wgt>
<wgt id='1369'> +7.3240517e+04 </wgt>
<wgt id='1370'> +7.2996977e+04 </wgt>
<wgt id='1371'> +7.3439230e+04 </wgt>
<wgt id='1372'> +7.4190451e+04 </wgt>
<wgt id='1373'> +7.3180635e+04 </wgt>
<wgt id='1374'> +7.3884882e+04 </wgt>
<wgt id='1375'> +7.3210882e+04 </wgt>
<wgt id='1376'> +7.3101120e+04 </wgt>
<wgt id='1377'> +7.3462546e+04 </wgt>
<wgt id='1378'> +7.4892185e+04 </wgt>
<wgt id='1379'> +7.4322965e+04 </wgt>
<wgt id='1380'> +7.3127177e+04 </wgt>
<wgt id='1381'> +7.3839088e+04 </wgt>
<wgt id='1382'> +7.3474548e+04 </wgt>
<wgt id='1383'> +7.4094934e+04 </wgt>
<wgt id='1384'> +7.3315695e+04 </wgt>
<wgt id='1385'> +7.2761578e+04 </wgt>
<wgt id='1386'> +7.3879036e+04 </wgt>
<wgt id='1387'> +7.2855257e+04 </wgt>
<wgt id='1388'> +7.3056790e+04 </wgt>
<wgt id='1389'> +7.3239493e+04 </wgt>
<wgt id='1390'> +7.1533718e+04 </wgt>
<wgt id='1391'> +7.1636210e+04 </wgt>
<wgt id='1392'> +7.4059572e+04 </wgt>
<wgt id='1393'> +7.4087533e+04 </wgt>
<wgt id='1394'> +7.2388568e+04 </wgt>
<wgt id='1395'> +7.4410492e+04 </wgt>
<wgt id='1396'> +7.5498943e+04 </wgt>
<wgt id='1397'> +7.4077477e+04 </wgt>
<wgt id='1398'> +7.4432481e+04 </wgt>
<wgt id='1399'> +7.4110764e+04 </wgt>
<wgt id='1400'> +7.4852126e+04 </wgt>
<wgt id='1401'> +7.4062157e+04 </wgt>
<wgt id='1402'> +7.4177433e+04 </wgt>
<wgt id='1403'> +7.4158840e+04 </wgt>
<wgt id='1404'> +7.4114410e+04 </wgt>
<wgt id='1405'> +7.1651464e+04 </wgt>
<wgt id='1406'> +7.4050129e+04 </wgt>
<wgt id='1407'> +7.3777490e+04 </wgt>
<wgt id='1408'> +7.4056596e+04 </wgt>
<wgt id='1409'> +7.3485281e+04 </wgt>
<wgt id='1410'> +7.3810120e+04 </wgt>
<wgt id='1411'> +7.3583683e+04 </wgt>
<wgt id='1412'> +7.3811520e+04 </wgt>
<wgt id='1413'> +7.3653599e+04 </wgt>
<wgt id='1414'> +7.2949102e+04 </wgt>
<wgt id='1415'> +7.2144097e+04 </wgt>
<wgt id='1416'> +7.3712939e+04 </wgt>
<wgt id='1417'> +7.5432847e+04 </wgt>
<wgt id='1418'> +7.4408546e+04 </wgt>
<wgt id='1419'> +7.3294161e+04 </wgt>
<wgt id='1420'> +7.2958610e+04 </wgt>
<wgt id='1421'> +7.3752738e+04 </wgt>
<wgt id='1422'> +7.3095711e+04 </wgt>
<wgt id='1423'> +7.1900898e+04 </wgt>
<wgt id='1424'> +7.4364409e+04 </wgt>
<wgt id='1425'> +7.3849166e+04 </wgt>
<wgt id='1426'> +7.4363596e+04 </wgt>
<wgt id='1427'> +7.3486247e+04 </wgt>
<wgt id='1428'> +7.4299677e+04 </wgt>
<wgt id='1429'> +7.3144660e+04 </wgt>
<wgt id='1430'> +7.4205581e+04 </wgt>
<wgt id='1431'> +7.3824852e+04 </wgt>
<wgt id='1432'> +7.3876530e+04 </wgt>
<wgt id='1433'> +7.3867162e+04 </wgt>
<wgt id='1434'> +7.3721243e+04 </wgt>
<wgt id='1435'> +7.4029441e+04 </wgt>
<wgt id='1436'> +7.3617024e+04 </wgt>
<wgt id='1437'> +7.3547237e+04 </wgt>
<wgt id='1438'> +7.3872264e+04 </wgt>
<wgt id='1439'> +7.3356754e+04 </wgt>
<wgt id='1440'> +7.3693608e+04 </wgt>
<wgt id='1441'> +7.3515455e+04 </wgt>
<wgt id='1442'> +7.3968552e+04 </wgt>
<wgt id='1443'> +7.3859038e+04 </wgt>
<wgt id='1444'> +7.3910490e+04 </wgt>
<wgt id='1445'> +7.3858824e+04 </wgt>
<wgt id='1446'> +7.3689274e+04 </wgt>
<wgt id='1447'> +7.3859648e+04 </wgt>
<wgt id='1448'> +7.3917989e+04 </wgt>
<wgt id='1449'> +7.3878933e+04 </wgt>
<wgt id='1450'> +7.3886204e+04 </wgt>
<wgt id='1451'> +7.3900815e+04 </wgt>
<wgt id='1452'> +7.3931392e+04 </wgt>
<wgt id='1453'> +7.3808662e+04 </wgt>
<wgt id='1454'> +7.3880098e+04 </wgt>
<wgt id='1455'> +7.3779028e+04 </wgt>
<wgt id='1456'> +7.3827296e+04 </wgt>
<wgt id='1457'> +7.3820173e+04 </wgt>
<wgt id='1458'> +7.3871389e+04 </wgt>
<wgt id='1459'> +7.3827370e+04 </wgt>
<wgt id='1460'> +7.3809355e+04 </wgt>
<wgt id='1461'> +7.3822842e+04 </wgt>
<wgt id='1462'> +7.3818808e+04 </wgt>
<wgt id='1463'> +7.3847602e+04 </wgt>
<wgt id='1464'> +7.3842106e+04 </wgt>
<wgt id='1465'> +7.3802325e+04 </wgt>
<wgt id='1466'> +7.3814177e+04 </wgt>
<wgt id='1467'> +7.3807308e+04 </wgt>
<wgt id='1468'> +7.3813046e+04 </wgt>
<wgt id='1469'> +7.3839659e+04 </wgt>
<wgt id='1470'> +7.3826473e+04 </wgt>
<wgt id='1471'> +7.3836722e+04 </wgt>
<wgt id='1472'> +7.3825919e+04 </wgt>
<wgt id='1473'> +7.3829069e+04 </wgt>
<wgt id='1474'> +7.3822978e+04 </wgt>
<wgt id='1475'> +7.3834849e+04 </wgt>
<wgt id='1476'> +7.3821543e+04 </wgt>
<wgt id='1477'> +7.3821542e+04 </wgt>
<wgt id='1478'> +7.3850031e+04 </wgt>
<wgt id='1479'> +7.3818166e+04 </wgt>
<wgt id='1480'> +7.3823373e+04 </wgt>
<wgt id='1481'> +7.3824801e+04 </wgt>
<wgt id='1482'> +7.3144660e+04 </wgt>
<wgt id='1483'> +7.4205581e+04 </wgt>
<wgt id='1484'> +7.2915996e+04 </wgt>
<wgt id='1485'> +7.2849059e+04 </wgt>
<wgt id='1486'> +7.2715085e+04 </wgt>
<wgt id='1487'> +7.2083423e+04 </wgt>
<wgt id='1488'> +7.4022165e+04 </wgt>
<wgt id='1489'> +7.2953344e+04 </wgt>
<wgt id='1490'> +7.1440517e+04 </wgt>
<wgt id='1491'> +7.2955334e+04 </wgt>
<wgt id='1492'> +7.3458702e+04 </wgt>
<wgt id='1493'> +7.4251650e+04 </wgt>
<wgt id='1494'> +7.2072669e+04 </wgt>
<wgt id='1495'> +7.2415031e+04 </wgt>
<wgt id='1496'> +7.3105171e+04 </wgt>
<wgt id='1497'> +7.1502174e+04 </wgt>
<wgt id='1498'> +7.3289570e+04 </wgt>
<wgt id='1499'> +7.2812699e+04 </wgt>
<wgt id='1500'> +7.0777150e+04 </wgt>
<wgt id='1501'> +7.3327285e+04 </wgt>
<wgt id='1502'> +7.2874833e+04 </wgt>
<wgt id='1503'> +7.1844069e+04 </wgt>
<wgt id='1504'> +7.2917772e+04 </wgt>
<wgt id='1505'> +7.2958636e+04 </wgt>
<wgt id='1506'> +7.3728219e+04 </wgt>
<wgt id='1507'> +7.3080170e+04 </wgt>
<wgt id='1508'> +7.1706309e+04 </wgt>
<wgt id='1509'> +7.2966012e+04 </wgt>
<wgt id='1510'> +7.3837172e+04 </wgt>
<wgt id='1511'> +7.3206818e+04 </wgt>
<wgt id='1512'> +7.3812685e+04 </wgt>
<wgt id='1513'> +7.2122315e+04 </wgt>
<wgt id='1514'> +7.4221688e+04 </wgt>
<wgt id='1515'> +7.3295971e+04 </wgt>
<wgt id='1516'> +7.3641818e+04 </wgt>
<wgt id='1517'> +7.2208149e+04 </wgt>
<wgt id='1518'> +7.2745350e+04 </wgt>
<wgt id='1519'> +7.2492383e+04 </wgt>
<wgt id='1520'> +7.3811606e+04 </wgt>
<wgt id='1521'> +7.3767466e+04 </wgt>
<wgt id='1522'> +7.2321684e+04 </wgt>
<wgt id='1523'> +7.2532950e+04 </wgt>
<wgt id='1524'> +7.3124444e+04 </wgt>
<wgt id='1525'> +7.2787363e+04 </wgt>
<wgt id='1526'> +7.1705312e+04 </wgt>
<wgt id='1527'> +7.3052520e+04 </wgt>
<wgt id='1528'> +7.2919815e+04 </wgt>
<wgt id='1529'> +7.2596624e+04 </wgt>
<wgt id='1530'> +7.2308950e+04 </wgt>
<wgt id='1531'> +7.4218130e+04 </wgt>
<wgt id='1532'> +7.1937478e+04 </wgt>
<wgt id='1533'> +7.3596099e+04 </wgt>
<wgt id='1534'> +7.2734610e+04 </wgt>
<wgt id='1535'> +7.3970371e+04 </wgt>
<wgt id='1536'> +7.2754118e+04 </wgt>
<wgt id='1537'> +7.3939210e+04 </wgt>
<wgt id='1538'> +7.2407341e+04 </wgt>
<wgt id='1539'> +7.3716001e+04 </wgt>
<wgt id='1540'> +7.3521021e+04 </wgt>
<wgt id='1541'> +7.2893610e+04 </wgt>
<wgt id='1542'> +7.2664195e+04 </wgt>
<wgt id='1543'> +7.2526164e+04 </wgt>
<wgt id='1544'> +7.2733801e+04 </wgt>
<wgt id='1545'> +7.2817264e+04 </wgt>
<wgt id='1546'> +7.2503157e+04 </wgt>
<wgt id='1547'> +7.2651795e+04 </wgt>
<wgt id='1548'> +7.3631857e+04 </wgt>
<wgt id='1549'> +7.2587389e+04 </wgt>
<wgt id='1550'> +7.2696862e+04 </wgt>
<wgt id='1551'> +7.3444684e+04 </wgt>
<wgt id='1552'> +7.1806286e+04 </wgt>
<wgt id='1553'> +7.2981245e+04 </wgt>
<wgt id='1554'> +7.3933902e+04 </wgt>
<wgt id='1555'> +7.2996499e+04 </wgt>
<wgt id='1556'> +7.2684247e+04 </wgt>
<wgt id='1557'> +7.2882100e+04 </wgt>
<wgt id='1558'> +7.2482132e+04 </wgt>
<wgt id='1559'> +7.3257295e+04 </wgt>
<wgt id='1560'> +7.3499090e+04 </wgt>
<wgt id='1561'> +7.3329326e+04 </wgt>
<wgt id='1562'> +7.2805569e+04 </wgt>
<wgt id='1563'> +7.4500226e+04 </wgt>
<wgt id='1564'> +7.3237645e+04 </wgt>
<wgt id='1565'> +7.3474008e+04 </wgt>
<wgt id='1566'> +7.1897435e+04 </wgt>
<wgt id='1567'> +7.2323676e+04 </wgt>
<wgt id='1568'> +7.2167940e+04 </wgt>
<wgt id='1569'> +7.3158013e+04 </wgt>
<wgt id='1570'> +7.1983022e+04 </wgt>
<wgt id='1571'> +7.2859448e+04 </wgt>
<wgt id='1572'> +7.4525477e+04 </wgt>
<wgt id='1573'> +7.2361223e+04 </wgt>
<wgt id='1574'> +7.1448198e+04 </wgt>
<wgt id='1575'> +7.3289173e+04 </wgt>
<wgt id='1576'> +7.3159324e+04 </wgt>
<wgt id='1577'> +7.3363083e+04 </wgt>
<wgt id='1578'> +7.2624296e+04 </wgt>
<wgt id='1579'> +7.2109292e+04 </wgt>
<wgt id='1580'> +7.2804977e+04 </wgt>
<wgt id='1581'> +7.3160365e+04 </wgt>
<wgt id='1582'> +7.4405467e+04 </wgt>
<wgt id='1583'> +7.3459522e+04 </wgt>
<wgt id='1584'> +7.1989239e+04 </wgt>
<wgt id='1585'> +7.0620835e+04 </wgt>
<wgt id='1586'> +5.8356842e+04 </wgt>
<wgt id='1587'> +7.2352275e+04 </wgt>
<wgt id='1588'> +7.3144660e+04 </wgt>
<wgt id='1589'> +7.3426163e+04 </wgt>
<wgt id='1590'> +7.3953357e+04 </wgt>
<wgt id='1591'> +7.4205581e+04 </wgt>
<wgt id='1592'> +7.4567157e+04 </wgt>
<wgt id='1593'> +7.3213252e+04 </wgt>
<wgt id='1594'> +7.2557855e+04 </wgt>
<wgt id='1595'> +7.2373393e+04 </wgt>
<wgt id='1596'> +7.3779065e+04 </wgt>
<wgt id='1597'> +7.2090143e+04 </wgt>
<wgt id='1598'> +7.2384643e+04 </wgt>
<wgt id='1599'> +7.3382084e+04 </wgt>
<wgt id='1600'> +7.2403090e+04 </wgt>
<wgt id='1601'> +7.3788199e+04 </wgt>
<wgt id='1602'> +7.2527762e+04 </wgt>
<wgt id='1603'> +7.3929051e+04 </wgt>
<wgt id='1604'> +7.3541445e+04 </wgt>
<wgt id='1605'> +7.2931270e+04 </wgt>
<wgt id='1606'> +7.3065809e+04 </wgt>
<wgt id='1607'> +7.3002650e+04 </wgt>
<wgt id='1608'> +7.2931358e+04 </wgt>
<wgt id='1609'> +7.2518926e+04 </wgt>
<wgt id='1610'> +7.2960595e+04 </wgt>
<wgt id='1611'> +7.3316273e+04 </wgt>
<wgt id='1612'> +7.3533125e+04 </wgt>
<wgt id='1613'> +7.2200406e+04 </wgt>
<wgt id='1614'> +7.3374760e+04 </wgt>
<wgt id='1615'> +7.2910952e+04 </wgt>
<wgt id='1616'> +7.2507347e+04 </wgt>
<wgt id='1617'> +7.3245594e+04 </wgt>
<wgt id='1618'> +7.3441464e+04 </wgt>
<wgt id='1619'> +7.2585274e+04 </wgt>
<wgt id='1620'> +7.2989884e+04 </wgt>
<wgt id='1621'> +7.3154689e+04 </wgt>
<wgt id='1622'> +7.2351240e+04 </wgt>
<wgt id='1623'> +7.3476361e+04 </wgt>
<wgt id='1624'> +7.3343227e+04 </wgt>
<wgt id='1625'> +7.1747494e+04 </wgt>
<wgt id='1626'> +7.2476433e+04 </wgt>
<wgt id='1627'> +7.3619015e+04 </wgt>
<wgt id='1628'> +7.3736869e+04 </wgt>
<wgt id='1629'> +7.2819797e+04 </wgt>
<wgt id='1630'> +7.3849945e+04 </wgt>
<wgt id='1631'> +7.2080431e+04 </wgt>
<wgt id='1632'> +7.3819503e+04 </wgt>
<wgt id='1633'> +7.2208147e+04 </wgt>
<wgt id='1634'> +7.3298046e+04 </wgt>
<wgt id='1635'> +7.3090362e+04 </wgt>
<wgt id='1636'> +7.2353650e+04 </wgt>
<wgt id='1637'> +7.4207769e+04 </wgt>
<wgt id='1638'> +7.4893755e+04 </wgt>
<wgt id='1639'> +7.2295845e+04 </wgt>
<wgt id='1640'> +7.3342844e+04 </wgt>
<wgt id='1641'> +7.2451560e+04 </wgt>
<wgt id='1642'> +7.2170763e+04 </wgt>
<wgt id='1643'> +7.4109015e+04 </wgt>
<wgt id='1644'> +7.5378737e+04 </wgt>
<wgt id='1645'> +7.0682416e+04 </wgt>
<wgt id='1646'> +7.3596387e+04 </wgt>
<wgt id='1647'> +7.3013933e+04 </wgt>
<wgt id='1648'> +7.3600077e+04 </wgt>
<wgt id='1649'> +7.2991162e+04 </wgt>
<wgt id='1650'> +7.2974471e+04 </wgt>
<wgt id='1651'> +7.3469786e+04 </wgt>
<wgt id='1652'> +7.3801909e+04 </wgt>
<wgt id='1653'> +7.3516549e+04 </wgt>
<wgt id='1654'> +7.2899491e+04 </wgt>
<wgt id='1655'> +7.2589328e+04 </wgt>
<wgt id='1656'> +7.2258956e+04 </wgt>
<wgt id='1657'> +7.1746462e+04 </wgt>
<wgt id='1658'> +7.1698754e+04 </wgt>
<wgt id='1659'> +7.2504221e+04 </wgt>
<wgt id='1660'> +7.2025179e+04 </wgt>
<wgt id='1661'> +7.2828189e+04 </wgt>
<wgt id='1662'> +7.1516350e+04 </wgt>
<wgt id='1663'> +7.1616330e+04 </wgt>
<wgt id='1664'> +7.2250150e+04 </wgt>
<wgt id='1665'> +7.1991398e+04 </wgt>
<wgt id='1666'> +7.2148726e+04 </wgt>
<wgt id='1667'> +7.2615012e+04 </wgt>
<wgt id='1668'> +7.1854426e+04 </wgt>
<wgt id='1669'> +7.2436086e+04 </wgt>
<wgt id='1670'> +7.1830008e+04 </wgt>
<wgt id='1671'> +7.2453753e+04 </wgt>
<wgt id='1672'> +7.1639385e+04 </wgt>
<wgt id='1673'> +7.2165901e+04 </wgt>
<wgt id='1674'> +7.2319612e+04 </wgt>
<wgt id='1675'> +7.2175893e+04 </wgt>
<wgt id='1676'> +7.2389399e+04 </wgt>
<wgt id='1677'> +7.1282307e+04 </wgt>
<wgt id='1678'> +7.2991639e+04 </wgt>
<wgt id='1679'> +7.3010992e+04 </wgt>
<wgt id='1680'> +7.2235139e+04 </wgt>
<wgt id='1681'> +7.1515234e+04 </wgt>
<wgt id='1682'> +7.2392180e+04 </wgt>
<wgt id='1683'> +7.2190292e+04 </wgt>
<wgt id='1684'> +7.2231281e+04 </wgt>
<wgt id='1685'> +7.2863315e+04 </wgt>
<wgt id='1686'> +7.1551324e+04 </wgt>
<wgt id='1687'> +7.2324665e+04 </wgt>
<wgt id='1688'> +7.1999660e+04 </wgt>
<wgt id='1689'> +7.2985277e+04 </wgt>
<wgt id='1690'> +7.1777990e+04 </wgt>
<wgt id='1691'> +7.2414474e+04 </wgt>
<wgt id='1692'> +7.1862465e+04 </wgt>
<wgt id='1693'> +7.3401896e+04 </wgt>
<wgt id='1694'> +7.1554940e+04 </wgt>
<wgt id='1695'> +7.3246053e+04 </wgt>
<wgt id='1696'> +7.1067531e+04 </wgt>
<wgt id='1697'> +7.2298020e+04 </wgt>
<wgt id='1698'> +7.2306107e+04 </wgt>
<wgt id='1699'> +7.1953392e+04 </wgt>
<wgt id='1700'> +7.2319826e+04 </wgt>
<wgt id='1701'> +7.1003421e+04 </wgt>
<wgt id='1702'> +7.3717722e+04 </wgt>
<wgt id='1703'> +7.2767834e+04 </wgt>
<wgt id='1704'> +7.1928860e+04 </wgt>
<wgt id='1705'> +7.2795780e+04 </wgt>
<wgt id='1706'> +7.1568665e+04 </wgt>
<wgt id='1707'> +7.0837664e+04 </wgt>
<wgt id='1708'> +7.3073475e+04 </wgt>
<wgt id='1709'> +7.1443510e+04 </wgt>
<wgt id='1710'> +7.3191867e+04 </wgt>
<wgt id='1711'> +7.1948244e+04 </wgt>
<wgt id='1712'> +7.1984882e+04 </wgt>
<wgt id='1713'> +7.1324093e+04 </wgt>
<wgt id='1714'> +7.2552502e+04 </wgt>
<wgt id='1715'> +7.1511080e+04 </wgt>
<wgt id='1716'> +7.3368243e+04 </wgt>
<wgt id='1717'> +7.1818704e+04 </wgt>
<wgt id='1718'> +7.1977079e+04 </wgt>
<wgt id='1719'> +7.1615633e+04 </wgt>
<wgt id='1720'> +7.1561589e+04 </wgt>
<wgt id='1721'> +7.2053526e+04 </wgt>
<wgt id='1722'> +7.1664220e+04 </wgt>
<wgt id='1723'> +7.2071923e+04 </wgt>
<wgt id='1724'> +7.1914481e+04 </wgt>
<wgt id='1725'> +7.1740814e+04 </wgt>
<wgt id='1726'> +7.1745601e+04 </wgt>
<wgt id='1727'> +7.1894065e+04 </wgt>
<wgt id='1728'> +7.1573021e+04 </wgt>
<wgt id='1729'> +7.2056611e+04 </wgt>
<wgt id='1730'> +7.1891149e+04 </wgt>
<wgt id='1731'> +7.1767377e+04 </wgt>
<wgt id='1732'> +7.1783370e+04 </wgt>
<wgt id='1733'> +7.1783370e+04 </wgt>
<wgt id='1734'> +7.2059704e+04 </wgt>
<wgt id='1735'> +7.1654351e+04 </wgt>
<wgt id='1736'> +7.1919252e+04 </wgt>
<wgt id='1737'> +7.1685828e+04 </wgt>
<wgt id='1738'> +7.1963732e+04 </wgt>
<wgt id='1739'> +7.1560573e+04 </wgt>
<wgt id='1740'> +7.1717736e+04 </wgt>
<wgt id='1741'> +7.2061763e+04 </wgt>
<wgt id='1742'> +7.1422536e+04 </wgt>
<wgt id='1743'> +7.2274995e+04 </wgt>
<wgt id='1744'> +7.1785177e+04 </wgt>
<wgt id='1745'> +7.1909165e+04 </wgt>
<wgt id='1746'> +7.1841433e+04 </wgt>
<wgt id='1747'> +7.1794816e+04 </wgt>
<wgt id='1748'> +7.1846286e+04 </wgt>
<wgt id='1749'> +7.1671695e+04 </wgt>
<wgt id='1750'> +7.1888783e+04 </wgt>
<wgt id='1751'> +7.1743957e+04 </wgt>
<wgt id='1752'> +7.1909621e+04 </wgt>
<wgt id='1753'> +7.1711099e+04 </wgt>
<wgt id='1754'> +7.1905079e+04 </wgt>
<wgt id='1755'> +7.1772452e+04 </wgt>
<wgt id='1756'> +7.2016676e+04 </wgt>
<wgt id='1757'> +7.1344811e+04 </wgt>
<wgt id='1758'> +7.2196176e+04 </wgt>
<wgt id='1759'> +7.1446334e+04 </wgt>
<wgt id='1760'> +7.1446825e+04 </wgt>
<wgt id='1761'> +7.2236590e+04 </wgt>
<wgt id='1762'> +7.1822381e+04 </wgt>
<wgt id='1763'> +7.1381516e+04 </wgt>
<wgt id='1764'> +7.1803904e+04 </wgt>
<wgt id='1765'> +7.1955520e+04 </wgt>
<wgt id='1766'> +7.1843334e+04 </wgt>
<wgt id='1767'> +7.1771566e+04 </wgt>
<wgt id='1768'> +7.1934824e+04 </wgt>
<wgt id='1769'> +7.1677958e+04 </wgt>
<wgt id='1770'> +7.1368110e+04 </wgt>
<wgt id='1771'> +7.1957435e+04 </wgt>
<wgt id='1772'> +7.2003699e+04 </wgt>
<wgt id='1773'> +7.1725851e+04 </wgt>
<wgt id='1774'> +7.1594831e+04 </wgt>
<wgt id='1775'> +7.1969648e+04 </wgt>
<wgt id='1776'> +7.1807812e+04 </wgt>
<wgt id='1777'> +7.1837804e+04 </wgt>
<wgt id='1778'> +7.1682341e+04 </wgt>
<wgt id='1779'> +7.1733327e+04 </wgt>
<wgt id='1780'> +7.2326985e+04 </wgt>
<wgt id='1781'> +7.1887986e+04 </wgt>
<wgt id='1782'> +7.1818704e+04 </wgt>
<wgt id='1783'> +7.1864626e+04 </wgt>
<wgt id='1784'> +7.2739937e+04 </wgt>
<wgt id='1785'> +7.2952853e+04 </wgt>
<wgt id='1786'> +7.1718341e+04 </wgt>
<wgt id='1787'> +7.2750557e+04 </wgt>
<wgt id='1788'> +7.2521299e+04 </wgt>
<wgt id='1789'> +7.2755536e+04 </wgt>
<wgt id='1790'> +7.2896300e+04 </wgt>
<wgt id='1791'> +7.2757084e+04 </wgt>
<wgt id='1792'> +7.1337957e+04 </wgt>
<wgt id='1793'> +7.2890266e+04 </wgt>
<wgt id='1794'> +7.2359811e+04 </wgt>
<wgt id='1795'> +7.2690425e+04 </wgt>
<wgt id='1796'> +7.2840112e+04 </wgt>
<wgt id='1797'> +7.2536473e+04 </wgt>
<wgt id='1798'> +7.2794131e+04 </wgt>
<wgt id='1799'> +7.2784334e+04 </wgt>
<wgt id='1800'> +7.2750959e+04 </wgt>
<wgt id='1801'> +7.2743064e+04 </wgt>
<wgt id='1802'> +7.2841289e+04 </wgt>
<wgt id='1803'> +7.2718341e+04 </wgt>
<wgt id='1804'> +7.2888768e+04 </wgt>
<wgt id='1805'> +7.2742774e+04 </wgt>
<wgt id='1806'> +7.2672099e+04 </wgt>
<wgt id='1807'> +7.2731453e+04 </wgt>
<wgt id='1808'> +7.2769010e+04 </wgt>
<wgt id='1809'> +7.2791372e+04 </wgt>
<wgt id='1810'> +7.2750317e+04 </wgt>
<wgt id='1811'> +7.2777349e+04 </wgt>
<wgt id='1812'> +7.2724580e+04 </wgt>
<wgt id='1813'> +7.2773026e+04 </wgt>
<wgt id='1814'> +7.3049582e+04 </wgt>
<wgt id='1815'> +7.2659039e+04 </wgt>
<wgt id='1816'> +7.2768685e+04 </wgt>
<wgt id='1817'> +7.2748105e+04 </wgt>
<wgt id='1818'> +7.2811444e+04 </wgt>
<wgt id='1819'> +7.2816246e+04 </wgt>
<wgt id='1820'> +7.2858453e+04 </wgt>
<wgt id='1821'> +7.2766382e+04 </wgt>
<wgt id='1822'> +7.2746667e+04 </wgt>
<wgt id='1823'> +7.2747589e+04 </wgt>
<wgt id='1824'> +7.2735534e+04 </wgt>
<wgt id='1825'> +7.2494633e+04 </wgt>
<wgt id='1826'> +7.3403157e+04 </wgt>
<wgt id='1827'> +7.5174253e+04 </wgt>
<wgt id='1828'> +7.5237831e+04 </wgt>
<wgt id='1829'> +7.5108633e+04 </wgt>
<wgt id='1830'> +7.5177025e+04 </wgt>
<wgt id='1831'> +7.5169266e+04 </wgt>
<wgt id='1832'> +7.5338810e+04 </wgt>
<wgt id='1833'> +7.5007945e+04 </wgt>
<wgt id='1834'> +7.5256703e+04 </wgt>
<wgt id='1835'> +7.5085354e+04 </wgt>
<wgt id='1836'> +7.5267664e+04 </wgt>
<wgt id='1837'> +7.5079004e+04 </wgt>
<wgt id='1838'> +7.5260311e+04 </wgt>
<wgt id='1839'> +7.5085831e+04 </wgt>
<wgt id='1840'> +7.5016781e+04 </wgt>
<wgt id='1841'> +7.5329720e+04 </wgt>
<wgt id='1842'> +7.5084175e+04 </wgt>
<wgt id='1843'> +7.5230471e+04 </wgt>
<wgt id='1844'> +7.5094179e+04 </wgt>
<wgt id='1845'> +7.5236814e+04 </wgt>
<wgt id='1846'> +7.5077466e+04 </wgt>
<wgt id='1847'> +7.5262387e+04 </wgt>
<wgt id='1848'> +7.4559139e+04 </wgt>
<wgt id='1849'> +7.5684705e+04 </wgt>
<wgt id='1850'> +7.5051437e+04 </wgt>
<wgt id='1851'> +7.5296917e+04 </wgt>
<wgt id='1852'> +7.5037777e+04 </wgt>
<wgt id='1853'> +7.5139165e+04 </wgt>
<wgt id='1854'> +7.5209626e+04 </wgt>
<wgt id='1855'> +7.5199806e+04 </wgt>
<wgt id='1856'> +7.4208792e+04 </wgt>
<wgt id='1857'> +7.4194193e+04 </wgt>
<wgt id='1858'> +7.4138605e+04 </wgt>
<wgt id='1859'> +7.4301237e+04 </wgt>
<wgt id='1860'> +7.4208082e+04 </wgt>
<wgt id='1861'> +7.4130946e+04 </wgt>
<wgt id='1862'> +7.4051273e+04 </wgt>
<wgt id='1863'> +7.4228924e+04 </wgt>
<wgt id='1864'> +7.4138220e+04 </wgt>
<wgt id='1865'> +7.4347466e+04 </wgt>
<wgt id='1866'> +7.4187684e+04 </wgt>
<wgt id='1867'> +7.4132175e+04 </wgt>
<wgt id='1868'> +7.4104498e+04 </wgt>
<wgt id='1869'> +7.4271282e+04 </wgt>
<wgt id='1870'> +7.4120981e+04 </wgt>
<wgt id='1871'> +7.4236347e+04 </wgt>
<wgt id='1872'> +7.4162733e+04 </wgt>
<wgt id='1873'> +7.4215941e+04 </wgt>
<wgt id='1874'> +7.4135833e+04 </wgt>
<wgt id='1875'> +7.4315254e+04 </wgt>
<wgt id='1876'> +7.4015630e+04 </wgt>
<wgt id='1877'> +7.4093572e+04 </wgt>
<wgt id='1878'> +7.3936138e+04 </wgt>
<wgt id='1879'> +7.4167721e+04 </wgt>
<wgt id='1880'> +7.4319555e+04 </wgt>
<wgt id='1881'> +7.4290578e+04 </wgt>
<wgt id='1882'> +7.4197970e+04 </wgt>
<wgt id='1883'> +7.4060370e+04 </wgt>
<wgt id='1884'> +7.4301228e+04 </wgt>
<wgt id='1885'> +7.3861103e+04 </wgt>
<wgt id='1886'> +8.2140254e+04 </wgt>
<wgt id='1887'> +8.6773774e+04 </wgt>
<wgt id='1888'> +7.2384828e+04 </wgt>
<wgt id='1889'> +7.8670883e+04 </wgt>
</rwgt>
</event>
<event npLO=" -1 " npNLO=" 0 ">
 5      0 +7.4519530e+04 2.57951640e+01 7.55820760e-03 1.20184630e-01
       -1 -1    0    0    0  501 +0.0000000000e+00 +0.0000000000e+00 +2.5118482497e+00 2.5118482497e+00 0.0000000000e+00 0.0000e+00 1.0000e+00
        2 -1    0    0  501    0 +0.0000000000e+00 +0.0000000000e+00 -6.3911476009e+02 6.3911476009e+02 0.0000000000e+00 0.0000e+00 -1.0000e+00
       24  2    1    2    0    0 +0.0000000000e+00 +0.0000000000e+00 -6.3660291184e+02 6.4162660834e+02 8.0133870280e+01 0.0000e+00 0.0000e+00
      -11  1    3    3    0    0 +1.2235591199e+01 -3.4360300764e+01 -1.8551681061e+02 1.8906831300e+02 0.0000000000e+00 0.0000e+00 1.0000e+00
       12  1    3    3    0    0 -1.2235591199e+01 +3.4360300764e+01 -4.5108610123e+02 4.5255829534e+02 0.0000000000e+00 0.0000e+00 -1.0000e+00
#aMCatNLO 1  0  0  2  1 0.12481658E+02 0.00000000E+00 -9  5  0 0.00000000E+00 0.00000000E+00 0.00000000E+00 0.00000000E+00 0.00000000E+00
<rwgt>
<wgt id='1001'> +7.4519530e+04 </wgt>
<wgt id='1002'> +7.2000725e+04 </wgt>
<wgt id='1003'> +7.7656166e+04 </wgt>
<wgt id='1004'> +9.6595712e+04 </wgt>
<wgt id='1005'> +9.2486268e+04 </wgt>
<wgt id='1006'> +1.0171433e+05 </wgt>
<wgt id='1007'> +5.5428377e+04 </wgt>
<wgt id='1008'> +5.4170090e+04 </wgt>
<wgt id='1009'> +5.6994458e+04 </wgt>
<wgt id='1010'> +7.4519530e+04 </wgt>
<wgt id='1011'> +7.4520569e+04 </wgt>
<wgt id='1012'> +7.4667212e+04 </wgt>
<wgt id='1013'> +7.4004339e+04 </wgt>
<wgt id='1014'> +7.4615384e+04 </wgt>
<wgt id='1015'> +7.4250419e+04 </wgt>
<wgt id='1016'> +7.4585258e+04 </wgt>
<wgt id='1017'> +7.4476413e+04 </wgt>
<wgt id='1018'> +7.4452210e+04 </wgt>
<wgt id='1019'> +7.4347739e+04 </wgt>
<wgt id='1020'> +7.4221814e+04 </wgt>
<wgt id='1021'> +7.4472526e+04 </wgt>
<wgt id='1022'> +7.4529459e+04 </wgt>
<wgt id='1023'> +7.4581608e+04 </wgt>
<wgt id='1024'> +7.4552814e+04 </wgt>
<wgt id='1025'> +7.4734545e+04 </wgt>
<wgt id='1026'> +7.4386318e+04 </wgt>
<wgt id='1027'> +7.4506463e+04 </wgt>
<wgt id='1028'> +7.4760381e+04 </wgt>
<wgt id='1029'> +7.4740067e+04 </wgt>
<wgt id='1030'> +7.5040093e+04 </wgt>
<wgt id='1031'> +7.4744019e+04 </wgt>
<wgt id='1032'> +7.4668332e+04 </wgt>
<wgt id='1033'> +7.4498960e+04 </wgt>
<wgt id='1034'> +7.4704147e+04 </wgt>
<wgt id='1035'> +7.4484256e+04 </wgt>
<wgt id='1036'> +7.4254661e+04 </wgt>
<wgt id='1037'> +7.4908842e+04 </wgt>
<wgt id='1038'> +7.4648329e+04 </wgt>
<wgt id='1039'> +7.4703459e+04 </wgt>
<wgt id='1040'> +7.4304134e+04 </wgt>
<wgt id='1041'> +7.4892785e+04 </wgt>
<wgt id='1042'> +7.4606274e+04 </wgt>
<wgt id='1043'> +7.4584897e+04 </wgt>
<wgt id='1044'> +7.4609823e+04 </wgt>
<wgt id='1045'> +7.4526284e+04 </wgt>
<wgt id='1046'> +7.4347345e+04 </wgt>
<wgt id='1047'> +7.4503027e+04 </wgt>
<wgt id='1048'> +7.4634402e+04 </wgt>
<wgt id='1049'> +7.4492939e+04 </wgt>
<wgt id='1050'> +7.4716008e+04 </wgt>
<wgt id='1051'> +7.4901717e+04 </wgt>
<wgt id='1052'> +7.4621554e+04 </wgt>
<wgt id='1053'> +7.4414746e+04 </wgt>
<wgt id='1054'> +7.4512165e+04 </wgt>
<wgt id='1055'> +7.4493656e+04 </wgt>
<wgt id='1056'> +7.4585105e+04 </wgt>
<wgt id='1057'> +7.4322352e+04 </wgt>
<wgt id='1058'> +7.4361762e+04 </wgt>
<wgt id='1059'> +7.4686694e+04 </wgt>
<wgt id='1060'> +7.4390597e+04 </wgt>
<wgt id='1061'> +7.4479448e+04 </wgt>
<wgt id='1062'> +7.4666995e+04 </wgt>
<wgt id='1063'> +7.4530800e+04 </wgt>
<wgt id='1064'> +7.4615031e+04 </wgt>
<wgt id='1065'> +7.4534934e+04 </wgt>
<wgt id='1066'> +7.4574832e+04 </wgt>
<wgt id='1067'> +7.4649684e+04 </wgt>
<wgt id='1068'> +7.4596451e+04 </wgt>
<wgt id='1069'> +7.4537674e+04 </wgt>
<wgt id='1070'> +7.4495959e+04 </wgt>
<wgt id='1071'> +7.4581172e+04 </wgt>
<wgt id='1072'> +7.4538978e+04 </wgt>
<wgt id='1073'> +7.4425494e+04 </wgt>
<wgt id='1074'> +7.4471321e+04 </wgt>
<wgt id='1075'> +7.4570739e+04 </wgt>
<wgt id='1076'> +7.4587930e+04 </wgt>
<wgt id='1077'> +7.4527817e+04 </wgt>
<wgt id='1078'> +7.4483004e+04 </wgt>
<wgt id='1079'> +7.4607320e+04 </wgt>
<wgt id='1080'> +7.4514327e+04 </wgt>
<wgt id='1081'> +7.4479415e+04 </wgt>
<wgt id='1082'> +7.4585710e+04 </wgt>
<wgt id='1083'> +7.4347895e+04 </wgt>
<wgt id='1084'> +7.4504893e+04 </wgt>
<wgt id='1085'> +7.4423719e+04 </wgt>
<wgt id='1086'> +7.4508753e+04 </wgt>
<wgt id='1087'> +7.4620433e+04 </wgt>
<wgt id='1088'> +7.4565774e+04 </wgt>
<wgt id='1089'> +7.4449471e+04 </wgt>
<wgt id='1090'> +7.4600318e+04 </wgt>
<wgt id='1091'> +7.4431463e+04 </wgt>
<wgt id='1092'> +7.4488888e+04 </wgt>
<wgt id='1093'> +7.4498891e+04 </wgt>
<wgt id='1094'> +7.4577103e+04 </wgt>
<wgt id='1095'> +7.4558754e+04 </wgt>
<wgt id='1096'> +7.4567058e+04 </wgt>
<wgt id='1097'> +7.4432697e+04 </wgt>
<wgt id='1098'> +7.4568211e+04 </wgt>
<wgt id='1099'> +7.4576041e+04 </wgt>
<wgt id='1100'> +7.4448297e+04 </wgt>
<wgt id='1101'> +7.4496937e+04 </wgt>
<wgt id='1102'> +7.4558452e+04 </wgt>
<wgt id='1103'> +7.4567016e+04 </wgt>
<wgt id='1104'> +7.4508926e+04 </wgt>
<wgt id='1105'> +7.4454015e+04 </wgt>
<wgt id='1106'> +7.4471887e+04 </wgt>
<wgt id='1107'> +7.4541237e+04 </wgt>
<wgt id='1108'> +7.4518343e+04 </wgt>
<wgt id='1109'> +7.4523707e+04 </wgt>
<wgt id='1110'> +7.4519526e+04 </wgt>
<wgt id='1111'> +7.3217192e+04 </wgt>
<wgt id='1112'> +7.5697322e+04 </wgt>
<wgt id='1113'> +7.4519526e+04 </wgt>
<wgt id='1114'> +7.3751629e+04 </wgt>
<wgt id='1115'> +7.6648775e+04 </wgt>
<wgt id='1116'> +7.0233381e+04 </wgt>
<wgt id='1117'> +7.3437977e+04 </wgt>
<wgt id='1118'> +7.3202936e+04 </wgt>
<wgt id='1119'> +7.4512686e+04 </wgt>
<wgt id='1120'> +7.6816547e+04 </wgt>
<wgt id='1121'> +7.3881984e+04 </wgt>
<wgt id='1122'> +7.4709837e+04 </wgt>
<wgt id='1123'> +7.3789504e+04 </wgt>
<wgt id='1124'> +7.3294777e+04 </wgt>
<wgt id='1125'> +7.3405311e+04 </wgt>
<wgt id='1126'> +7.5281731e+04 </wgt>
<wgt id='1127'> +7.3885672e+04 </wgt>
<wgt id='1128'> +7.5541860e+04 </wgt>
<wgt id='1129'> +7.4790315e+04 </wgt>
<wgt id='1130'> +7.5317334e+04 </wgt>
<wgt id='1131'> +7.3738027e+04 </wgt>
<wgt id='1132'> +7.6580003e+04 </wgt>
<wgt id='1133'> +7.4557544e+04 </wgt>
<wgt id='1134'> +7.3908305e+04 </wgt>
<wgt id='1135'> +7.5418741e+04 </wgt>
<wgt id='1136'> +7.6419941e+04 </wgt>
<wgt id='1137'> +7.3869690e+04 </wgt>
<wgt id='1138'> +7.5291210e+04 </wgt>
<wgt id='1139'> +7.3620141e+04 </wgt>
<wgt id='1140'> +7.7256337e+04 </wgt>
<wgt id='1141'> +7.5006876e+04 </wgt>
<wgt id='1142'> +7.6130932e+04 </wgt>
<wgt id='1143'> +7.7546306e+04 </wgt>
<wgt id='1144'> +7.3164891e+04 </wgt>
<wgt id='1145'> +7.3115123e+04 </wgt>
<wgt id='1146'> +7.5110895e+04 </wgt>
<wgt id='1147'> +7.4114601e+04 </wgt>
<wgt id='1148'> +7.2060786e+04 </wgt>
<wgt id='1149'> +7.3462071e+04 </wgt>
<wgt id='1150'> +7.2940629e+04 </wgt>
<wgt id='1151'> +7.4289310e+04 </wgt>
<wgt id='1152'> +7.6629758e+04 </wgt>
<wgt id='1153'> +7.4425071e+04 </wgt>
<wgt id='1154'> +7.4938104e+04 </wgt>
<wgt id='1155'> +7.4988427e+04 </wgt>
<wgt id='1156'> +7.4780007e+04 </wgt>
<wgt id='1157'> +7.5876890e+04 </wgt>
<wgt id='1158'> +7.2656501e+04 </wgt>
<wgt id='1159'> +7.4460411e+04 </wgt>
<wgt id='1160'> +7.6145445e+04 </wgt>
<wgt id='1161'> +7.3164067e+04 </wgt>
<wgt id='1162'> +7.7874198e+04 </wgt>
<wgt id='1163'> +7.5103428e+04 </wgt>
<wgt id='1164'> +7.2527133e+04 </wgt>
<wgt id='1165'> +7.4817440e+04 </wgt>
<wgt id='1166'> +7.6049981e+04 </wgt>
<wgt id='1167'> +7.5066026e+04 </wgt>
<wgt id='1168'> +7.3234246e+04 </wgt>
<wgt id='1169'> +7.4551541e+04 </wgt>
<wgt id='1170'> +7.5804856e+04 </wgt>
<wgt id='1171'> +7.4907374e+04 </wgt>
<wgt id='1172'> +7.5865129e+04 </wgt>
<wgt id='1173'> +7.3164249e+04 </wgt>
<wgt id='1174'> +7.5371220e+04 </wgt>
<wgt id='1175'> +7.4349321e+04 </wgt>
<wgt id='1176'> +7.4744212e+04 </wgt>
<wgt id='1177'> +7.1431167e+04 </wgt>
<wgt id='1178'> +7.4792840e+04 </wgt>
<wgt id='1179'> +7.4999897e+04 </wgt>
<wgt id='1180'> +7.3548845e+04 </wgt>
<wgt id='1181'> +7.6292964e+04 </wgt>
<wgt id='1182'> +7.6786406e+04 </wgt>
<wgt id='1183'> +7.5741467e+04 </wgt>
<wgt id='1184'> +7.4413761e+04 </wgt>
<wgt id='1185'> +7.7013756e+04 </wgt>
<wgt id='1186'> +7.2114111e+04 </wgt>
<wgt id='1187'> +7.4513420e+04 </wgt>
<wgt id='1188'> +7.3938207e+04 </wgt>
<wgt id='1189'> +7.5058935e+04 </wgt>
<wgt id='1190'> +7.4735878e+04 </wgt>
<wgt id='1191'> +7.5464087e+04 </wgt>
<wgt id='1192'> +7.3739950e+04 </wgt>
<wgt id='1193'> +7.3254355e+04 </wgt>
<wgt id='1194'> +7.4347428e+04 </wgt>
<wgt id='1195'> +7.4790315e+04 </wgt>
<wgt id='1196'> +7.1954946e+04 </wgt>
<wgt id='1197'> +7.3765236e+04 </wgt>
<wgt id='1198'> +7.4358576e+04 </wgt>
<wgt id='1199'> +7.6123438e+04 </wgt>
<wgt id='1200'> +7.3473797e+04 </wgt>
<wgt id='1201'> +7.4240354e+04 </wgt>
<wgt id='1202'> +7.0728910e+04 </wgt>
<wgt id='1203'> +7.4022652e+04 </wgt>
<wgt id='1204'> +7.5053288e+04 </wgt>
<wgt id='1205'> +7.5076494e+04 </wgt>
<wgt id='1206'> +7.3690648e+04 </wgt>
<wgt id='1207'> +7.6269871e+04 </wgt>
<wgt id='1208'> +7.3545658e+04 </wgt>
<wgt id='1209'> +7.6547576e+04 </wgt>
<wgt id='1210'> +7.1065938e+04 </wgt>
<wgt id='1211'> +7.4890305e+04 </wgt>
<wgt id='1212'> +7.3738461e+04 </wgt>
<wgt id='1213'> +7.4583952e+04 </wgt>
<wgt id='1214'> +7.4482880e+04 </wgt>
<wgt id='1215'> +6.8818080e+04 </wgt>
<wgt id='1216'> +6.9730484e+04 </wgt>
<wgt id='1217'> +7.0855091e+04 </wgt>
<wgt id='1218'> +7.2151427e+04 </wgt>
<wgt id='1219'> +7.4293496e+04 </wgt>
<wgt id='1220'> +7.5118855e+04 </wgt>
<wgt id='1221'> +7.7231399e+04 </wgt>
<wgt id='1222'> +7.8218758e+04 </wgt>
<wgt id='1223'> +7.3145777e+04 </wgt>
<wgt id='1224'> +7.2965239e+04 </wgt>
<wgt id='1225'> +7.3606928e+04 </wgt>
<wgt id='1226'> +7.2833456e+04 </wgt>
<wgt id='1227'> +7.3451830e+04 </wgt>
<wgt id='1228'> +7.3100731e+04 </wgt>
<wgt id='1229'> +7.2684742e+04 </wgt>
<wgt id='1230'> +7.3337674e+04 </wgt>
<wgt id='1231'> +7.3603269e+04 </wgt>
<wgt id='1232'> +7.3413653e+04 </wgt>
<wgt id='1233'> +7.2948365e+04 </wgt>
<wgt id='1234'> +7.2992238e+04 </wgt>
<wgt id='1235'> +7.3305714e+04 </wgt>
<wgt id='1236'> +7.3439462e+04 </wgt>
<wgt id='1237'> +7.3015146e+04 </wgt>
<wgt id='1238'> +7.3257438e+04 </wgt>
<wgt id='1239'> +7.3455769e+04 </wgt>
<wgt id='1240'> +7.3148128e+04 </wgt>
<wgt id='1241'> +7.3298650e+04 </wgt>
<wgt id='1242'> +7.3255349e+04 </wgt>
<wgt id='1243'> +7.3121980e+04 </wgt>
<wgt id='1244'> +7.3280815e+04 </wgt>
<wgt id='1245'> +7.3109474e+04 </wgt>
<wgt id='1246'> +7.3042707e+04 </wgt>
<wgt id='1247'> +7.3466007e+04 </wgt>
<wgt id='1248'> +7.2958613e+04 </wgt>
<wgt id='1249'> +7.3142396e+04 </wgt>
<wgt id='1250'> +7.3087162e+04 </wgt>
<wgt id='1251'> +7.3213773e+04 </wgt>
<wgt id='1252'> +7.3550199e+04 </wgt>
<wgt id='1253'> +7.2811251e+04 </wgt>
<wgt id='1254'> +7.2771831e+04 </wgt>
<wgt id='1255'> +7.3292042e+04 </wgt>
<wgt id='1256'> +7.3186146e+04 </wgt>
<wgt id='1257'> +7.3061508e+04 </wgt>
<wgt id='1258'> +7.3235139e+04 </wgt>
<wgt id='1259'> +7.3258509e+04 </wgt>
<wgt id='1260'> +7.3029015e+04 </wgt>
<wgt id='1261'> +7.3168564e+04 </wgt>
<wgt id='1262'> +7.3170906e+04 </wgt>
<wgt id='1263'> +7.3125615e+04 </wgt>
<wgt id='1264'> +7.3216212e+04 </wgt>
<wgt id='1265'> +7.3251418e+04 </wgt>
<wgt id='1266'> +7.3075891e+04 </wgt>
<wgt id='1267'> +7.3188547e+04 </wgt>
<wgt id='1268'> +7.3197324e+04 </wgt>
<wgt id='1269'> +7.3104619e+04 </wgt>
<wgt id='1270'> +7.3116690e+04 </wgt>
<wgt id='1271'> +7.3275656e+04 </wgt>
<wgt id='1272'> +7.3250789e+04 </wgt>
<wgt id='1273'> +7.3070776e+04 </wgt>
<wgt id='1274'> +7.3105917e+04 </wgt>
<wgt id='1275'> +7.3147700e+04 </wgt>
<wgt id='1276'> +7.2978582e+04 </wgt>
<wgt id='1277'> +7.3111800e+04 </wgt>
<wgt id='1278'> +7.3206406e+04 </wgt>
<wgt id='1279'> +7.2983934e+04 </wgt>
<wgt id='1280'> +7.3173450e+04 </wgt>
<wgt id='1281'> +7.2953370e+04 </wgt>
<wgt id='1282'> +7.3184375e+04 </wgt>
<wgt id='1283'> +7.3157139e+04 </wgt>
<wgt id='1284'> +7.3171888e+04 </wgt>
<wgt id='1285'> +7.3056314e+04 </wgt>
<wgt id='1286'> +7.3196545e+04 </wgt>
<wgt id='1287'> +7.3052755e+04 </wgt>
<wgt id='1288'> +7.3278208e+04 </wgt>
<wgt id='1289'> +7.3163760e+04 </wgt>
<wgt id='1290'> +7.3024087e+04 </wgt>
<wgt id='1291'> +7.3232041e+04 </wgt>
<wgt id='1292'> +7.3079227e+04 </wgt>
<wgt id='1293'> +7.3224747e+04 </wgt>
<wgt id='1294'> +7.3132790e+04 </wgt>
<wgt id='1295'> +7.3237479e+04 </wgt>
<wgt id='1296'> +7.3182369e+04 </wgt>
<wgt id='1297'> +7.3178021e+04 </wgt>
<wgt id='1298'> +7.3072154e+04 </wgt>
<wgt id='1299'> +7.3171427e+04 </wgt>
<wgt id='1300'> +7.3216280e+04 </wgt>
<wgt id='1301'> +7.3114873e+04 </wgt>
<wgt id='1302'> +7.3092872e+04 </wgt>
<wgt id='1303'> +7.3129263e+04 </wgt>
<wgt id='1304'> +7.3157288e+04 </wgt>
<wgt id='1305'> +7.3063254e+04 </wgt>
<wgt id='1306'> +7.3144723e+04 </wgt>
<wgt id='1307'> +7.3063560e+04 </wgt>
<wgt id='1308'> +7.3086676e+04 </wgt>
<wgt id='1309'> +7.3174895e+04 </wgt>
<wgt id='1310'> +7.3207480e+04 </wgt>
<wgt id='1311'> +7.3052465e+04 </wgt>
<wgt id='1312'> +7.3054483e+04 </wgt>
<wgt id='1313'> +7.3050425e+04 </wgt>
<wgt id='1314'> +7.3193044e+04 </wgt>
<wgt id='1315'> +7.3096587e+04 </wgt>
<wgt id='1316'> +7.3126465e+04 </wgt>
<wgt id='1317'> +7.3231449e+04 </wgt>
<wgt id='1318'> +7.3163157e+04 </wgt>
<wgt id='1319'> +7.3114592e+04 </wgt>
<wgt id='1320'> +7.3187975e+04 </wgt>
<wgt id='1321'> +7.3168469e+04 </wgt>
<wgt id='1322'> +7.3084761e+04 </wgt>
<wgt id='1323'> +7.3072744e+04 </wgt>
<wgt id='1324'> +7.1879794e+04 </wgt>
<wgt id='1325'> +7.4397356e+04 </wgt>
<wgt id='1326'> +7.2560879e+04 </wgt>
<wgt id='1327'> +6.9819434e+04 </wgt>
<wgt id='1328'> +7.4468770e+04 </wgt>
<wgt id='1329'> +7.3943382e+04 </wgt>
<wgt id='1330'> +7.4578910e+04 </wgt>
<wgt id='1331'> +7.4857427e+04 </wgt>
<wgt id='1332'> +7.4687526e+04 </wgt>
<wgt id='1333'> +7.4974028e+04 </wgt>
<wgt id='1334'> +7.2632966e+04 </wgt>
<wgt id='1335'> +7.3465375e+04 </wgt>
<wgt id='1336'> +7.4487797e+04 </wgt>
<wgt id='1337'> +7.4278262e+04 </wgt>
<wgt id='1338'> +7.5429470e+04 </wgt>
<wgt id='1339'> +7.4726839e+04 </wgt>
<wgt id='1340'> +7.3477126e+04 </wgt>
<wgt id='1341'> +7.3391105e+04 </wgt>
<wgt id='1342'> +7.5117257e+04 </wgt>
<wgt id='1343'> +7.5070876e+04 </wgt>
<wgt id='1344'> +7.3685667e+04 </wgt>
<wgt id='1345'> +7.5828411e+04 </wgt>
<wgt id='1346'> +7.4418924e+04 </wgt>
<wgt id='1347'> +7.5191595e+04 </wgt>
<wgt id='1348'> +7.2815711e+04 </wgt>
<wgt id='1349'> +7.4665167e+04 </wgt>
<wgt id='1350'> +7.3731249e+04 </wgt>
<wgt id='1351'> +7.3922581e+04 </wgt>
<wgt id='1352'> +7.5089393e+04 </wgt>
<wgt id='1353'> +7.4730472e+04 </wgt>
<wgt id='1354'> +7.5001313e+04 </wgt>
<wgt id='1355'> +7.5203987e+04 </wgt>
<wgt id='1356'> +7.4089494e+04 </wgt>
<wgt id='1357'> +7.3990116e+04 </wgt>
<wgt id='1358'> +7.4115864e+04 </wgt>
<wgt id='1359'> +7.5202281e+04 </wgt>
<wgt id='1360'> +7.4363166e+04 </wgt>
<wgt id='1361'> +7.6119048e+04 </wgt>
<wgt id='1362'> +7.5651272e+04 </wgt>
<wgt id='1363'> +7.4618500e+04 </wgt>
<wgt id='1364'> +7.4596869e+04 </wgt>
<wgt id='1365'> +7.3941797e+04 </wgt>
<wgt id='1366'> +7.4234573e+04 </wgt>
<wgt id='1367'> +7.4945444e+04 </wgt>
<wgt id='1368'> +7.4905405e+04 </wgt>
<wgt id='1369'> +7.2551498e+04 </wgt>
<wgt id='1370'> +7.4879625e+04 </wgt>
<wgt id='1371'> +7.3836129e+04 </wgt>
<wgt id='1372'> +7.5287628e+04 </wgt>
<wgt id='1373'> +7.4417629e+04 </wgt>
<wgt id='1374'> +7.5188302e+04 </wgt>
<wgt id='1375'> +7.4915835e+04 </wgt>
<wgt id='1376'> +7.4534174e+04 </wgt>
<wgt id='1377'> +7.4654104e+04 </wgt>
<wgt id='1378'> +7.3473367e+04 </wgt>
<wgt id='1379'> +7.5899647e+04 </wgt>
<wgt id='1380'> +7.3458051e+04 </wgt>
<wgt id='1381'> +7.3730247e+04 </wgt>
<wgt id='1382'> +7.3855732e+04 </wgt>
<wgt id='1383'> +7.5223871e+04 </wgt>
<wgt id='1384'> +7.4892004e+04 </wgt>
<wgt id='1385'> +7.3627007e+04 </wgt>
<wgt id='1386'> +7.4911308e+04 </wgt>
<wgt id='1387'> +7.3390416e+04 </wgt>
<wgt id='1388'> +7.5047769e+04 </wgt>
<wgt id='1389'> +7.4469005e+04 </wgt>
<wgt id='1390'> +7.2779582e+04 </wgt>
<wgt id='1391'> +7.4419472e+04 </wgt>
<wgt id='1392'> +7.4282819e+04 </wgt>
<wgt id='1393'> +7.3676072e+04 </wgt>
<wgt id='1394'> +7.3941797e+04 </wgt>
<wgt id='1395'> +7.4731025e+04 </wgt>
<wgt id='1396'> +7.2754462e+04 </wgt>
<wgt id='1397'> +7.4679269e+04 </wgt>
<wgt id='1398'> +7.4858423e+04 </wgt>
<wgt id='1399'> +7.4962401e+04 </wgt>
<wgt id='1400'> +7.5700941e+04 </wgt>
<wgt id='1401'> +7.4919145e+04 </wgt>
<wgt id='1402'> +7.5036121e+04 </wgt>
<wgt id='1403'> +7.4393413e+04 </wgt>
<wgt id='1404'> +7.5524461e+04 </wgt>
<wgt id='1405'> +7.2566588e+04 </wgt>
<wgt id='1406'> +7.3736759e+04 </wgt>
<wgt id='1407'> +7.4818811e+04 </wgt>
<wgt id='1408'> +7.5380403e+04 </wgt>
<wgt id='1409'> +7.3409934e+04 </wgt>
<wgt id='1410'> +7.4883152e+04 </wgt>
<wgt id='1411'> +7.5372833e+04 </wgt>
<wgt id='1412'> +7.5814305e+04 </wgt>
<wgt id='1413'> +7.5459697e+04 </wgt>
<wgt id='1414'> +7.4418406e+04 </wgt>
<wgt id='1415'> +7.2521041e+04 </wgt>
<wgt id='1416'> +7.4694591e+04 </wgt>
<wgt id='1417'> +7.3686099e+04 </wgt>
<wgt id='1418'> +7.5777722e+04 </wgt>
<wgt id='1419'> +7.4718801e+04 </wgt>
<wgt id='1420'> +7.3608056e+04 </wgt>
<wgt id='1421'> +7.3821584e+04 </wgt>
<wgt id='1422'> +7.4254687e+04 </wgt>
<wgt id='1423'> +7.5584858e+04 </wgt>
<wgt id='1424'> +7.3699119e+04 </wgt>
<wgt id='1425'> +7.3057544e+04 </wgt>
<wgt id='1426'> +7.5326738e+04 </wgt>
<wgt id='1427'> +7.5664936e+04 </wgt>
<wgt id='1428'> +7.5474909e+04 </wgt>
<wgt id='1429'> +7.3999948e+04 </wgt>
<wgt id='1430'> +7.4955414e+04 </wgt>
<wgt id='1431'> +7.4472167e+04 </wgt>
<wgt id='1432'> +7.4993829e+04 </wgt>
<wgt id='1433'> +7.4468233e+04 </wgt>
<wgt id='1434'> +7.4325037e+04 </wgt>
<wgt id='1435'> +7.4299230e+04 </wgt>
<wgt id='1436'> +7.4364031e+04 </wgt>
<wgt id='1437'> +7.4681003e+04 </wgt>
<wgt id='1438'> +7.4603127e+04 </wgt>
<wgt id='1439'> +7.4257772e+04 </wgt>
<wgt id='1440'> +7.4443114e+04 </wgt>
<wgt id='1441'> +7.4379391e+04 </wgt>
<wgt id='1442'> +7.4635163e+04 </wgt>
<wgt id='1443'> +7.4449033e+04 </wgt>
<wgt id='1444'> +7.4283827e+04 </wgt>
<wgt id='1445'> +7.4524037e+04 </wgt>
<wgt id='1446'> +7.4428289e+04 </wgt>
<wgt id='1447'> +7.4239223e+04 </wgt>
<wgt id='1448'> +7.4601100e+04 </wgt>
<wgt id='1449'> +7.4436747e+04 </wgt>
<wgt id='1450'> +7.4242719e+04 </wgt>
<wgt id='1451'> +7.4397921e+04 </wgt>
<wgt id='1452'> +7.4367995e+04 </wgt>
<wgt id='1453'> +7.4508834e+04 </wgt>
<wgt id='1454'> +7.4449026e+04 </wgt>
<wgt id='1455'> +7.4489081e+04 </wgt>
<wgt id='1456'> +7.4536603e+04 </wgt>
<wgt id='1457'> +7.4547355e+04 </wgt>
<wgt id='1458'> +7.4453022e+04 </wgt>
<wgt id='1459'> +7.4388784e+04 </wgt>
<wgt id='1460'> +7.4355404e+04 </wgt>
<wgt id='1461'> +7.4376144e+04 </wgt>
<wgt id='1462'> +7.4419344e+04 </wgt>
<wgt id='1463'> +7.4458386e+04 </wgt>
<wgt id='1464'> +7.4408340e+04 </wgt>
<wgt id='1465'> +7.4458891e+04 </wgt>
<wgt id='1466'> +7.4507481e+04 </wgt>
<wgt id='1467'> +7.4531694e+04 </wgt>
<wgt id='1468'> +7.4545339e+04 </wgt>
<wgt id='1469'> +7.4442719e+04 </wgt>
<wgt id='1470'> +7.4531713e+04 </wgt>
<wgt id='1471'> +7.4537826e+04 </wgt>
<wgt id='1472'> +7.4470723e+04 </wgt>
<wgt id='1473'> +7.4443092e+04 </wgt>
<wgt id='1474'> +7.4522019e+04 </wgt>
<wgt id='1475'> +7.4437261e+04 </wgt>
<wgt id='1476'> +7.4487956e+04 </wgt>
<wgt id='1477'> +7.4502646e+04 </wgt>
<wgt id='1478'> +7.4480332e+04 </wgt>
<wgt id='1479'> +7.4445128e+04 </wgt>
<wgt id='1480'> +7.4494162e+04 </wgt>
<wgt id='1481'> +7.4462179e+04 </wgt>
<wgt id='1482'> +7.3999948e+04 </wgt>
<wgt id='1483'> +7.4955414e+04 </wgt>
<wgt id='1484'> +7.6718886e+04 </wgt>
<wgt id='1485'> +7.7028535e+04 </wgt>
<wgt id='1486'> +7.6559285e+04 </wgt>
<wgt id='1487'> +7.4986800e+04 </wgt>
<wgt id='1488'> +7.6451217e+04 </wgt>
<wgt id='1489'> +7.7114188e+04 </wgt>
<wgt id='1490'> +7.4922670e+04 </wgt>
<wgt id='1491'> +7.6731599e+04 </wgt>
<wgt id='1492'> +7.5034190e+04 </wgt>
<wgt id='1493'> +7.6563328e+04 </wgt>
<wgt id='1494'> +7.5872135e+04 </wgt>
<wgt id='1495'> +7.5263349e+04 </wgt>
<wgt id='1496'> +7.6256641e+04 </wgt>
<wgt id='1497'> +7.6012670e+04 </wgt>
<wgt id='1498'> +7.7882535e+04 </wgt>
<wgt id='1499'> +7.6804380e+04 </wgt>
<wgt id='1500'> +7.5183853e+04 </wgt>
<wgt id='1501'> +7.5944148e+04 </wgt>
<wgt id='1502'> +7.7883596e+04 </wgt>
<wgt id='1503'> +7.5967404e+04 </wgt>
<wgt id='1504'> +7.6983517e+04 </wgt>
<wgt id='1505'> +7.6583954e+04 </wgt>
<wgt id='1506'> +7.6100365e+04 </wgt>
<wgt id='1507'> +7.5904095e+04 </wgt>
<wgt id='1508'> +7.5164036e+04 </wgt>
<wgt id='1509'> +7.6867576e+04 </wgt>
<wgt id='1510'> +7.7009921e+04 </wgt>
<wgt id='1511'> +7.6059762e+04 </wgt>
<wgt id='1512'> +7.6050981e+04 </wgt>
<wgt id='1513'> +7.6559923e+04 </wgt>
<wgt id='1514'> +7.6949883e+04 </wgt>
<wgt id='1515'> +7.6153937e+04 </wgt>
<wgt id='1516'> +7.4625094e+04 </wgt>
<wgt id='1517'> +7.7114172e+04 </wgt>
<wgt id='1518'> +7.6921460e+04 </wgt>
<wgt id='1519'> +7.6928672e+04 </wgt>
<wgt id='1520'> +7.6019186e+04 </wgt>
<wgt id='1521'> +7.4888067e+04 </wgt>
<wgt id='1522'> +7.7686836e+04 </wgt>
<wgt id='1523'> +7.7360877e+04 </wgt>
<wgt id='1524'> +7.6799177e+04 </wgt>
<wgt id='1525'> +7.7142669e+04 </wgt>
<wgt id='1526'> +7.6896838e+04 </wgt>
<wgt id='1527'> +7.7107098e+04 </wgt>
<wgt id='1528'> +7.7371768e+04 </wgt>
<wgt id='1529'> +7.7428354e+04 </wgt>
<wgt id='1530'> +7.6851544e+04 </wgt>
<wgt id='1531'> +7.6122557e+04 </wgt>
<wgt id='1532'> +7.5249287e+04 </wgt>
<wgt id='1533'> +7.7374363e+04 </wgt>
<wgt id='1534'> +7.7349624e+04 </wgt>
<wgt id='1535'> +7.5867908e+04 </wgt>
<wgt id='1536'> +7.7112128e+04 </wgt>
<wgt id='1537'> +7.6957979e+04 </wgt>
<wgt id='1538'> +7.9174862e+04 </wgt>
<wgt id='1539'> +7.7073459e+04 </wgt>
<wgt id='1540'> +7.7076481e+04 </wgt>
<wgt id='1541'> +7.7253451e+04 </wgt>
<wgt id='1542'> +7.7948922e+04 </wgt>
<wgt id='1543'> +7.7210723e+04 </wgt>
<wgt id='1544'> +7.7918289e+04 </wgt>
<wgt id='1545'> +7.6770364e+04 </wgt>
<wgt id='1546'> +7.6836159e+04 </wgt>
<wgt id='1547'> +7.7640374e+04 </wgt>
<wgt id='1548'> +7.5991376e+04 </wgt>
<wgt id='1549'> +7.7723966e+04 </wgt>
<wgt id='1550'> +7.7332623e+04 </wgt>
<wgt id='1551'> +7.8492101e+04 </wgt>
<wgt id='1552'> +7.6327082e+04 </wgt>
<wgt id='1553'> +7.8296550e+04 </wgt>
<wgt id='1554'> +7.4812365e+04 </wgt>
<wgt id='1555'> +7.7148813e+04 </wgt>
<wgt id='1556'> +7.6968898e+04 </wgt>
<wgt id='1557'> +7.6464827e+04 </wgt>
<wgt id='1558'> +7.7775686e+04 </wgt>
<wgt id='1559'> +7.7622812e+04 </wgt>
<wgt id='1560'> +7.6451922e+04 </wgt>
<wgt id='1561'> +7.7520747e+04 </wgt>
<wgt id='1562'> +7.7192697e+04 </wgt>
<wgt id='1563'> +7.7287364e+04 </wgt>
<wgt id='1564'> +7.5609772e+04 </wgt>
<wgt id='1565'> +7.5354679e+04 </wgt>
<wgt id='1566'> +7.7129506e+04 </wgt>
<wgt id='1567'> +7.8080150e+04 </wgt>
<wgt id='1568'> +7.6586456e+04 </wgt>
<wgt id='1569'> +7.7747725e+04 </wgt>
<wgt id='1570'> +7.7322821e+04 </wgt>
<wgt id='1571'> +7.8184064e+04 </wgt>
<wgt id='1572'> +7.5925023e+04 </wgt>
<wgt id='1573'> +7.7376256e+04 </wgt>
<wgt id='1574'> +7.6112309e+04 </wgt>
<wgt id='1575'> +7.5661469e+04 </wgt>
<wgt id='1576'> +7.7560763e+04 </wgt>
<wgt id='1577'> +7.5390013e+04 </wgt>
<wgt id='1578'> +7.6872087e+04 </wgt>
<wgt id='1579'> +7.6984971e+04 </wgt>
<wgt id='1580'> +7.8126010e+04 </wgt>
<wgt id='1581'> +7.7938092e+04 </wgt>
<wgt id='1582'> +7.6802554e+04 </wgt>
<wgt id='1583'> +7.5544706e+04 </wgt>
<wgt id='1584'> +7.5282719e+04 </wgt>
<wgt id='1585'> +7.3716872e+04 </wgt>
<wgt id='1586'> +6.3866069e+04 </wgt>
<wgt id='1587'> +7.3338871e+04 </wgt>
<wgt id='1588'> +7.3999948e+04 </wgt>
<wgt id='1589'> +7.4186093e+04 </wgt>
<wgt id='1590'> +7.4542120e+04 </wgt>
<wgt id='1591'> +7.4955414e+04 </wgt>
<wgt id='1592'> +7.5226958e+04 </wgt>
<wgt id='1593'> +7.5153124e+04 </wgt>
<wgt id='1594'> +7.5908603e+04 </wgt>
<wgt id='1595'> +7.5388762e+04 </wgt>
<wgt id='1596'> +7.4830516e+04 </wgt>
<wgt id='1597'> +7.5669120e+04 </wgt>
<wgt id='1598'> +7.5056838e+04 </wgt>
<wgt id='1599'> +7.5395571e+04 </wgt>
<wgt id='1600'> +7.3902460e+04 </wgt>
<wgt id='1601'> +7.6297943e+04 </wgt>
<wgt id='1602'> +7.4611175e+04 </wgt>
<wgt id='1603'> +7.5793322e+04 </wgt>
<wgt id='1604'> +7.5573443e+04 </wgt>
<wgt id='1605'> +7.5131506e+04 </wgt>
<wgt id='1606'> +7.4221716e+04 </wgt>
<wgt id='1607'> +7.5691844e+04 </wgt>
<wgt id='1608'> +7.3793333e+04 </wgt>
<wgt id='1609'> +7.5894856e+04 </wgt>
<wgt id='1610'> +7.5360493e+04 </wgt>
<wgt id='1611'> +7.4677773e+04 </wgt>
<wgt id='1612'> +7.5684175e+04 </wgt>
<wgt id='1613'> +7.3711030e+04 </wgt>
<wgt id='1614'> +7.4720589e+04 </wgt>
<wgt id='1615'> +7.5885867e+04 </wgt>
<wgt id='1616'> +7.4208925e+04 </wgt>
<wgt id='1617'> +7.5782150e+04 </wgt>
<wgt id='1618'> +7.5391527e+04 </wgt>
<wgt id='1619'> +7.4615820e+04 </wgt>
<wgt id='1620'> +7.5420315e+04 </wgt>
<wgt id='1621'> +7.4936689e+04 </wgt>
<wgt id='1622'> +7.5388652e+04 </wgt>
<wgt id='1623'> +7.4595062e+04 </wgt>
<wgt id='1624'> +7.5477501e+04 </wgt>
<wgt id='1625'> +7.3728427e+04 </wgt>
<wgt id='1626'> +7.4316599e+04 </wgt>
<wgt id='1627'> +7.5720451e+04 </wgt>
<wgt id='1628'> +7.5769096e+04 </wgt>
<wgt id='1629'> +7.5026935e+04 </wgt>
<wgt id='1630'> +7.5025802e+04 </wgt>
<wgt id='1631'> +7.4783401e+04 </wgt>
<wgt id='1632'> +7.4566377e+04 </wgt>
<wgt id='1633'> +7.5536804e+04 </wgt>
<wgt id='1634'> +7.6106414e+04 </wgt>
<wgt id='1635'> +7.4277221e+04 </wgt>
<wgt id='1636'> +7.4685325e+04 </wgt>
<wgt id='1637'> +7.6038358e+04 </wgt>
<wgt id='1638'> +7.4784211e+04 </wgt>
<wgt id='1639'> +7.5222120e+04 </wgt>
<wgt id='1640'> +7.6982640e+04 </wgt>
<wgt id='1641'> +7.3824664e+04 </wgt>
<wgt id='1642'> +7.4423916e+04 </wgt>
<wgt id='1643'> +7.5813849e+04 </wgt>
<wgt id='1644'> +7.6056361e+04 </wgt>
<wgt id='1645'> +7.3744664e+04 </wgt>
<wgt id='1646'> +7.4956731e+04 </wgt>
<wgt id='1647'> +7.5871206e+04 </wgt>
<wgt id='1648'> +7.5699089e+04 </wgt>
<wgt id='1649'> +7.5361659e+04 </wgt>
<wgt id='1650'> +7.6312803e+04 </wgt>
<wgt id='1651'> +7.3750843e+04 </wgt>
<wgt id='1652'> +7.4369395e+04 </wgt>
<wgt id='1653'> +7.4756125e+04 </wgt>
<wgt id='1654'> +7.5563434e+04 </wgt>
<wgt id='1655'> +7.5991439e+04 </wgt>
<wgt id='1656'> +7.6417640e+04 </wgt>
<wgt id='1657'> +7.6811230e+04 </wgt>
<wgt id='1658'> +7.6793499e+04 </wgt>
<wgt id='1659'> +7.6757194e+04 </wgt>
<wgt id='1660'> +7.6461950e+04 </wgt>
<wgt id='1661'> +7.7214570e+04 </wgt>
<wgt id='1662'> +7.5345784e+04 </wgt>
<wgt id='1663'> +7.5965208e+04 </wgt>
<wgt id='1664'> +7.6101479e+04 </wgt>
<wgt id='1665'> +7.5923608e+04 </wgt>
<wgt id='1666'> +7.6365614e+04 </wgt>
<wgt id='1667'> +7.5633183e+04 </wgt>
<wgt id='1668'> +7.7054764e+04 </wgt>
<wgt id='1669'> +7.6899626e+04 </wgt>
<wgt id='1670'> +7.5563615e+04 </wgt>
<wgt id='1671'> +7.6376928e+04 </wgt>
<wgt id='1672'> +7.6859799e+04 </wgt>
<wgt id='1673'> +7.7443623e+04 </wgt>
<wgt id='1674'> +7.5772429e+04 </wgt>
<wgt id='1675'> +7.7189941e+04 </wgt>
<wgt id='1676'> +7.5726989e+04 </wgt>
<wgt id='1677'> +7.5433386e+04 </wgt>
<wgt id='1678'> +7.7476756e+04 </wgt>
<wgt id='1679'> +7.6531287e+04 </wgt>
<wgt id='1680'> +7.7068042e+04 </wgt>
<wgt id='1681'> +7.6711083e+04 </wgt>
<wgt id='1682'> +7.5677795e+04 </wgt>
<wgt id='1683'> +7.6231473e+04 </wgt>
<wgt id='1684'> +7.6569509e+04 </wgt>
<wgt id='1685'> +7.7455501e+04 </wgt>
<wgt id='1686'> +7.5300938e+04 </wgt>
<wgt id='1687'> +7.7145754e+04 </wgt>
<wgt id='1688'> +7.5342380e+04 </wgt>
<wgt id='1689'> +7.5691586e+04 </wgt>
<wgt id='1690'> +7.7573250e+04 </wgt>
<wgt id='1691'> +7.6680171e+04 </wgt>
<wgt id='1692'> +7.6236399e+04 </wgt>
<wgt id='1693'> +7.7239650e+04 </wgt>
<wgt id='1694'> +7.6122523e+04 </wgt>
<wgt id='1695'> +7.6382833e+04 </wgt>
<wgt id='1696'> +7.6449308e+04 </wgt>
<wgt id='1697'> +7.6572837e+04 </wgt>
<wgt id='1698'> +7.6572569e+04 </wgt>
<wgt id='1699'> +7.5676667e+04 </wgt>
<wgt id='1700'> +7.7259084e+04 </wgt>
<wgt id='1701'> +7.6104354e+04 </wgt>
<wgt id='1702'> +7.6960797e+04 </wgt>
<wgt id='1703'> +7.6525734e+04 </wgt>
<wgt id='1704'> +7.6799701e+04 </wgt>
<wgt id='1705'> +7.6347199e+04 </wgt>
<wgt id='1706'> +7.6495110e+04 </wgt>
<wgt id='1707'> +7.5283746e+04 </wgt>
<wgt id='1708'> +7.7255525e+04 </wgt>
<wgt id='1709'> +7.5933785e+04 </wgt>
<wgt id='1710'> +7.7115479e+04 </wgt>
<wgt id='1711'> +7.6032130e+04 </wgt>
<wgt id='1712'> +7.6713224e+04 </wgt>
<wgt id='1713'> +7.7273659e+04 </wgt>
<wgt id='1714'> +7.5253775e+04 </wgt>
<wgt id='1715'> +7.4394871e+04 </wgt>
<wgt id='1716'> +7.6118617e+04 </wgt>
<wgt id='1717'> +7.3139461e+04 </wgt>
<wgt id='1718'> +7.3261080e+04 </wgt>
<wgt id='1719'> +7.2983025e+04 </wgt>
<wgt id='1720'> +7.3165164e+04 </wgt>
<wgt id='1721'> +7.3115989e+04 </wgt>
<wgt id='1722'> +7.3135696e+04 </wgt>
<wgt id='1723'> +7.3145507e+04 </wgt>
<wgt id='1724'> +7.3305378e+04 </wgt>
<wgt id='1725'> +7.3004503e+04 </wgt>
<wgt id='1726'> +7.2997813e+04 </wgt>
<wgt id='1727'> +7.3285501e+04 </wgt>
<wgt id='1728'> +7.2544560e+04 </wgt>
<wgt id='1729'> +7.3717721e+04 </wgt>
<wgt id='1730'> +7.3101230e+04 </wgt>
<wgt id='1731'> +7.3166102e+04 </wgt>
<wgt id='1732'> +7.3597885e+04 </wgt>
<wgt id='1733'> +7.3597885e+04 </wgt>
<wgt id='1734'> +7.2975571e+04 </wgt>
<wgt id='1735'> +7.3246188e+04 </wgt>
<wgt id='1736'> +7.3108146e+04 </wgt>
<wgt id='1737'> +7.3181711e+04 </wgt>
<wgt id='1738'> +7.3405748e+04 </wgt>
<wgt id='1739'> +7.2647428e+04 </wgt>
<wgt id='1740'> +7.3027344e+04 </wgt>
<wgt id='1741'> +7.3406129e+04 </wgt>
<wgt id='1742'> +7.3368577e+04 </wgt>
<wgt id='1743'> +7.2869657e+04 </wgt>
<wgt id='1744'> +7.3030690e+04 </wgt>
<wgt id='1745'> +7.3434215e+04 </wgt>
<wgt id='1746'> +7.2499799e+04 </wgt>
<wgt id='1747'> +7.3476048e+04 </wgt>
<wgt id='1748'> +7.3271104e+04 </wgt>
<wgt id='1749'> +7.2637226e+04 </wgt>
<wgt id='1750'> +7.3068736e+04 </wgt>
<wgt id='1751'> +7.3214686e+04 </wgt>
<wgt id='1752'> +7.3202486e+04 </wgt>
<wgt id='1753'> +7.3046422e+04 </wgt>
<wgt id='1754'> +7.3152347e+04 </wgt>
<wgt id='1755'> +7.3121643e+04 </wgt>
<wgt id='1756'> +7.2723388e+04 </wgt>
<wgt id='1757'> +7.4181999e+04 </wgt>
<wgt id='1758'> +7.3403324e+04 </wgt>
<wgt id='1759'> +7.2667316e+04 </wgt>
<wgt id='1760'> +7.3638704e+04 </wgt>
<wgt id='1761'> +7.2725487e+04 </wgt>
<wgt id='1762'> +7.3117359e+04 </wgt>
<wgt id='1763'> +7.3166167e+04 </wgt>
<wgt id='1764'> +7.3009302e+04 </wgt>
<wgt id='1765'> +7.3718517e+04 </wgt>
<wgt id='1766'> +7.3059511e+04 </wgt>
<wgt id='1767'> +7.3340645e+04 </wgt>
<wgt id='1768'> +7.3115707e+04 </wgt>
<wgt id='1769'> +7.3194860e+04 </wgt>
<wgt id='1770'> +7.2885526e+04 </wgt>
<wgt id='1771'> +7.3517519e+04 </wgt>
<wgt id='1772'> +7.3361293e+04 </wgt>
<wgt id='1773'> +7.2873988e+04 </wgt>
<wgt id='1774'> +7.2979227e+04 </wgt>
<wgt id='1775'> +7.3230508e+04 </wgt>
<wgt id='1776'> +7.3351956e+04 </wgt>
<wgt id='1777'> +7.3053575e+04 </wgt>
<wgt id='1778'> +7.3227833e+04 </wgt>
<wgt id='1779'> +7.3134066e+04 </wgt>
<wgt id='1780'> +7.3493305e+04 </wgt>
<wgt id='1781'> +7.3268164e+04 </wgt>
<wgt id='1782'> +7.3139461e+04 </wgt>
<wgt id='1783'> +7.3118815e+04 </wgt>
<wgt id='1784'> +7.4061771e+04 </wgt>
<wgt id='1785'> +7.3943588e+04 </wgt>
<wgt id='1786'> +7.3032295e+04 </wgt>
<wgt id='1787'> +7.4086934e+04 </wgt>
<wgt id='1788'> +7.4041830e+04 </wgt>
<wgt id='1789'> +7.4117465e+04 </wgt>
<wgt id='1790'> +7.3800974e+04 </wgt>
<wgt id='1791'> +7.4070213e+04 </wgt>
<wgt id='1792'> +7.3651882e+04 </wgt>
<wgt id='1793'> +7.4237484e+04 </wgt>
<wgt id='1794'> +7.4354496e+04 </wgt>
<wgt id='1795'> +7.3328062e+04 </wgt>
<wgt id='1796'> +7.4127740e+04 </wgt>
<wgt id='1797'> +7.4001627e+04 </wgt>
<wgt id='1798'> +7.4009343e+04 </wgt>
<wgt id='1799'> +7.4617953e+04 </wgt>
<wgt id='1800'> +7.4416596e+04 </wgt>
<wgt id='1801'> +7.4552606e+04 </wgt>
<wgt id='1802'> +7.4693711e+04 </wgt>
<wgt id='1803'> +7.4083487e+04 </wgt>
<wgt id='1804'> +7.3524462e+04 </wgt>
<wgt id='1805'> +7.4095709e+04 </wgt>
<wgt id='1806'> +7.3886669e+04 </wgt>
<wgt id='1807'> +7.4076446e+04 </wgt>
<wgt id='1808'> +7.4086364e+04 </wgt>
<wgt id='1809'> +7.3738551e+04 </wgt>
<wgt id='1810'> +7.3984624e+04 </wgt>
<wgt id='1811'> +7.3893852e+04 </wgt>
<wgt id='1812'> +7.4103892e+04 </wgt>
<wgt id='1813'> +7.4131954e+04 </wgt>
<wgt id='1814'> +7.3891749e+04 </wgt>
<wgt id='1815'> +7.3997555e+04 </wgt>
<wgt id='1816'> +7.4024857e+04 </wgt>
<wgt id='1817'> +7.3637638e+04 </wgt>
<wgt id='1818'> +7.4053670e+04 </wgt>
<wgt id='1819'> +7.3844195e+04 </wgt>
<wgt id='1820'> +7.4032590e+04 </wgt>
<wgt id='1821'> +7.3865198e+04 </wgt>
<wgt id='1822'> +7.3792823e+04 </wgt>
<wgt id='1823'> +7.4045339e+04 </wgt>
<wgt id='1824'> +7.4164708e+04 </wgt>
<wgt id='1825'> +7.3406508e+04 </wgt>
<wgt id='1826'> +7.4873231e+04 </wgt>
<wgt id='1827'> +8.3733342e+04 </wgt>
<wgt id='1828'> +8.3898472e+04 </wgt>
<wgt id='1829'> +8.3606354e+04 </wgt>
<wgt id='1830'> +8.3858637e+04 </wgt>
<wgt id='1831'> +8.3644833e+04 </wgt>
<wgt id='1832'> +8.3766851e+04 </wgt>
<wgt id='1833'> +8.3736318e+04 </wgt>
<wgt id='1834'> +8.3337592e+04 </wgt>
<wgt id='1835'> +8.4148513e+04 </wgt>
<wgt id='1836'> +8.4026859e+04 </wgt>
<wgt id='1837'> +8.3460027e+04 </wgt>
<wgt id='1838'> +8.3842519e+04 </wgt>
<wgt id='1839'> +8.3657793e+04 </wgt>
<wgt id='1840'> +8.3396049e+04 </wgt>
<wgt id='1841'> +8.4119554e+04 </wgt>
<wgt id='1842'> +8.3801005e+04 </wgt>
<wgt id='1843'> +8.4075724e+04 </wgt>
<wgt id='1844'> +8.3835768e+04 </wgt>
<wgt id='1845'> +8.3646470e+04 </wgt>
<wgt id='1846'> +8.3908639e+04 </wgt>
<wgt id='1847'> +8.3581809e+04 </wgt>
<wgt id='1848'> +8.3021030e+04 </wgt>
<wgt id='1849'> +8.4387294e+04 </wgt>
<wgt id='1850'> +8.4122145e+04 </wgt>
<wgt id='1851'> +8.3412406e+04 </wgt>
<wgt id='1852'> +8.3348212e+04 </wgt>
<wgt id='1853'> +8.3963630e+04 </wgt>
<wgt id='1854'> +8.3456196e+04 </wgt>
<wgt id='1855'> +8.3876906e+04 </wgt>
<wgt id='1856'> +7.3384045e+04 </wgt>
<wgt id='1857'> +7.3368487e+04 </wgt>
<wgt id='1858'> +7.3376376e+04 </wgt>
<wgt id='1859'> +7.3389538e+04 </wgt>
<wgt id='1860'> +7.3385261e+04 </wgt>
<wgt id='1861'> +7.3431554e+04 </wgt>
<wgt id='1862'> +7.3125162e+04 </wgt>
<wgt id='1863'> +7.3333533e+04 </wgt>
<wgt id='1864'> +7.3241844e+04 </wgt>
<wgt id='1865'> +7.3222164e+04 </wgt>
<wgt id='1866'> +7.3668303e+04 </wgt>
<wgt id='1867'> +7.3295788e+04 </wgt>
<wgt id='1868'> +7.3320961e+04 </wgt>
<wgt id='1869'> +7.3444893e+04 </wgt>
<wgt id='1870'> +7.3277968e+04 </wgt>
<wgt id='1871'> +7.3429771e+04 </wgt>
<wgt id='1872'> +7.3451857e+04 </wgt>
<wgt id='1873'> +7.3341888e+04 </wgt>
<wgt id='1874'> +7.3467988e+04 </wgt>
<wgt id='1875'> +7.3402846e+04 </wgt>
<wgt id='1876'> +7.3056800e+04 </wgt>
<wgt id='1877'> +7.3302683e+04 </wgt>
<wgt id='1878'> +7.3199533e+04 </wgt>
<wgt id='1879'> +7.3601816e+04 </wgt>
<wgt id='1880'> +7.3599724e+04 </wgt>
<wgt id='1881'> +7.3624092e+04 </wgt>
<wgt id='1882'> +7.3315466e+04 </wgt>
<wgt id='1883'> +7.3416628e+04 </wgt>
<wgt id='1884'> +7.3104911e+04 </wgt>
<wgt id='1885'> +7.2774010e+04 </wgt>
<wgt id='1886'> +6.7303490e+04 </wgt>
<wgt id='1887'> +7.1982152e+04 </wgt>
<wgt id='1888'> +6.3148336e+04 </wgt>
<wgt id='1889'> +7.4623516e+04 </wgt>
</rwgt>
</event>
<event npLO=" -1 " npNLO=" 0 ">
 5      0 +7.4519530e+04 3.57549130e+01 7.55820760e-03 1.16606470e-01
        2 -1    0    0  501    0 +0.0000000000e+00 +0.0000000000e+00 +4.3329379255e+00 4.3329379255e+00 0.0000000000e+00 0.0000e+00 -1.0000e+00
       -3 -1    0    0    0  501 +0.0000000000e+00 +0.0000000000e+00 -3.8271577777e+02 3.8271577777e+02 0.0000000000e+00 0.0000e+00 1.0000e+00
       24  2    1    2    0    0 +0.0000000000e+00 +0.0000000000e+00 -3.7838283984e+02 3.8704871569e+02 8.1444059530e+01 0.0000e+00 0.0000e+00
      -13  1    3    3    0    0 -3.3762143058e+01 +1.1769939874e+01 -2.8181544942e+02 2.8407456999e+02 0.0000000000e+00 0.0000e+00 1.0000e+00
       14  1    3    3    0    0 +3.3762143058e+01 -1.1769939874e+01 -9.6567390427e+01 1.0297414570e+02 0.0000000000e+00 0.0000e+00 -1.0000e+00
#aMCatNLO 1  0  0  1  2 0.87326671E+02 0.00000000E+00 -9  5  0 0.00000000E+00 0.00000000E+00 0.00000000E+00 0.00000000E+00 0.00000000E+00
<rwgt>
<wgt id='1001'> +7.4519530e+04 </wgt>
<wgt id='1002'> +7.4520367e+04 </wgt>
<wgt id='1003'> +7.4518492e+04 </wgt>
<wgt id='1004'> +8.2595223e+04 </wgt>
<wgt id='1005'> +8.2660468e+04 </wgt>
<wgt id='1006'> +8.2513967e+04 </wgt>
<wgt id='1007'> +6.5456654e+04 </wgt>
<wgt id='1008'> +6.5407227e+04 </wgt>
<wgt id='1009'> +6.5518212e+04 </wgt>
<wgt id='1010'> +7.4519530e+04 </wgt>
<wgt id='1011'> +7.4918339e+04 </wgt>
<wgt id='1012'> +7.4035245e+04 </wgt>
<wgt id='1013'> +7.4108621e+04 </wgt>
<wgt id='1014'> +7.4413760e+04 </wgt>
<wgt id='1015'> +7.5058797e+04 </wgt>
<wgt id='1016'> +7.4416871e+04 </wgt>
<wgt id='1017'> +7.4871183e+04 </wgt>
<wgt id='1018'> +7.5282027e+04 </wgt>
<wgt id='1019'> +7.3529930e+04 </wgt>
<wgt id='1020'> +7.4153510e+04 </wgt>
<wgt id='1021'> +7.3829081e+04 </wgt>
<wgt id='1022'> +7.5384131e+04 </wgt>
<wgt id='1023'> +7.4218218e+04 </wgt>
<wgt id='1024'> +7.5153170e+04 </wgt>
<wgt id='1025'> +7.3197391e+04 </wgt>
<wgt id='1026'> +7.4306832e+04 </wgt>
<wgt id='1027'> +7.4409124e+04 </wgt>
<wgt id='1028'> +7.5318144e+04 </wgt>
<wgt id='1029'> +7.3782172e+04 </wgt>
<wgt id='1030'> +7.4742185e+04 </wgt>
<wgt id='1031'> +7.5320482e+04 </wgt>
<wgt id='1032'> +7.5035299e+04 </wgt>
<wgt id='1033'> +7.4898631e+04 </wgt>
<wgt id='1034'> +7.5006988e+04 </wgt>
<wgt id='1035'> +7.4905113e+04 </wgt>
<wgt id='1036'> +7.5230962e+04 </wgt>
<wgt id='1037'> +7.3504675e+04 </wgt>
<wgt id='1038'> +7.5049700e+04 </wgt>
<wgt id='1039'> +7.2813742e+04 </wgt>
<wgt id='1040'> +7.4177046e+04 </wgt>
<wgt id='1041'> +7.3458017e+04 </wgt>
<wgt id='1042'> +7.4973536e+04 </wgt>
<wgt id='1043'> +7.3789812e+04 </wgt>
<wgt id='1044'> +7.4416578e+04 </wgt>
<wgt id='1045'> +7.4325612e+04 </wgt>
<wgt id='1046'> +7.4725767e+04 </wgt>
<wgt id='1047'> +7.4132908e+04 </wgt>
<wgt id='1048'> +7.4680752e+04 </wgt>
<wgt id='1049'> +7.5072740e+04 </wgt>
<wgt id='1050'> +7.4899319e+04 </wgt>
<wgt id='1051'> +7.4317831e+04 </wgt>
<wgt id='1052'> +7.3863659e+04 </wgt>
<wgt id='1053'> +7.4445755e+04 </wgt>
<wgt id='1054'> +7.4939937e+04 </wgt>
<wgt id='1055'> +7.3834298e+04 </wgt>
<wgt id='1056'> +7.4363948e+04 </wgt>
<wgt id='1057'> +7.4839282e+04 </wgt>
<wgt id='1058'> +7.4809151e+04 </wgt>
<wgt id='1059'> +7.5011779e+04 </wgt>
<wgt id='1060'> +7.4737491e+04 </wgt>
<wgt id='1061'> +7.3561021e+04 </wgt>
<wgt id='1062'> +7.4766356e+04 </wgt>
<wgt id='1063'> +7.4195863e+04 </wgt>
<wgt id='1064'> +7.4697160e+04 </wgt>
<wgt id='1065'> +7.4142827e+04 </wgt>
<wgt id='1066'> +7.4767955e+04 </wgt>
<wgt id='1067'> +7.4925816e+04 </wgt>
<wgt id='1068'> +7.4356948e+04 </wgt>
<wgt id='1069'> +7.5581277e+04 </wgt>
<wgt id='1070'> +7.4177167e+04 </wgt>
<wgt id='1071'> +7.4234370e+04 </wgt>
<wgt id='1072'> +7.4802774e+04 </wgt>
<wgt id='1073'> +7.4010048e+04 </wgt>
<wgt id='1074'> +7.4938842e+04 </wgt>
<wgt id='1075'> +7.3883623e+04 </wgt>
<wgt id='1076'> +7.4946899e+04 </wgt>
<wgt id='1077'> +7.3825190e+04 </wgt>
<wgt id='1078'> +7.5270483e+04 </wgt>
<wgt id='1079'> +7.4892984e+04 </wgt>
<wgt id='1080'> +7.5031672e+04 </wgt>
<wgt id='1081'> +7.5124240e+04 </wgt>
<wgt id='1082'> +7.4611250e+04 </wgt>
<wgt id='1083'> +7.4642680e+04 </wgt>
<wgt id='1084'> +7.4406578e+04 </wgt>
<wgt id='1085'> +7.4610106e+04 </wgt>
<wgt id='1086'> +7.5044549e+04 </wgt>
<wgt id='1087'> +7.4733502e+04 </wgt>
<wgt id='1088'> +7.4301445e+04 </wgt>
<wgt id='1089'> +7.4866349e+04 </wgt>
<wgt id='1090'> +7.4491561e+04 </wgt>
<wgt id='1091'> +7.4346122e+04 </wgt>
<wgt id='1092'> +7.4454108e+04 </wgt>
<wgt id='1093'> +7.5167377e+04 </wgt>
<wgt id='1094'> +7.4153434e+04 </wgt>
<wgt id='1095'> +7.4178863e+04 </wgt>
<wgt id='1096'> +7.4384245e+04 </wgt>
<wgt id='1097'> +7.4451317e+04 </wgt>
<wgt id='1098'> +7.4565774e+04 </wgt>
<wgt id='1099'> +7.4400712e+04 </wgt>
<wgt id='1100'> +7.4460266e+04 </wgt>
<wgt id='1101'> +7.4620113e+04 </wgt>
<wgt id='1102'> +7.4560288e+04 </wgt>
<wgt id='1103'> +7.4657282e+04 </wgt>
<wgt id='1104'> +7.4467231e+04 </wgt>
<wgt id='1105'> +7.4437338e+04 </wgt>
<wgt id='1106'> +7.4590263e+04 </wgt>
<wgt id='1107'> +7.4309365e+04 </wgt>
<wgt id='1108'> +7.4535341e+04 </wgt>
<wgt id='1109'> +7.4583119e+04 </wgt>
<wgt id='1110'> +7.4519532e+04 </wgt>
<wgt id='1111'> +7.3834841e+04 </wgt>
<wgt id='1112'> +7.6136746e+04 </wgt>
<wgt id='1113'> +7.4519532e+04 </wgt>
<wgt id='1114'> +6.3038652e+04 </wgt>
<wgt id='1115'> +7.2013825e+04 </wgt>
<wgt id='1116'> +6.9053285e+04 </wgt>
<wgt id='1117'> +6.9298867e+04 </wgt>
<wgt id='1118'> +7.4439417e+04 </wgt>
<wgt id='1119'> +7.5380101e+04 </wgt>
<wgt id='1120'> +7.3021508e+04 </wgt>
<wgt id='1121'> +7.7047251e+04 </wgt>
<wgt id='1122'> +7.7696478e+04 </wgt>
<wgt id='1123'> +8.3483432e+04 </wgt>
<wgt id='1124'> +7.1232538e+04 </wgt>
<wgt id='1125'> +7.7016688e+04 </wgt>
<wgt id='1126'> +7.3542038e+04 </wgt>
<wgt id='1127'> +7.4367600e+04 </wgt>
<wgt id='1128'> +7.3994370e+04 </wgt>
<wgt id='1129'> +7.1205857e+04 </wgt>
<wgt id='1130'> +6.8436974e+04 </wgt>
<wgt id='1131'> +6.9341630e+04 </wgt>
<wgt id='1132'> +7.1707465e+04 </wgt>
<wgt id='1133'> +8.3377562e+04 </wgt>
<wgt id='1134'> +7.2232736e+04 </wgt>
<wgt id='1135'> +7.2941480e+04 </wgt>
<wgt id='1136'> +7.4987784e+04 </wgt>
<wgt id='1137'> +7.0790319e+04 </wgt>
<wgt id='1138'> +7.4694265e+04 </wgt>
<wgt id='1139'> +7.3011843e+04 </wgt>
<wgt id='1140'> +7.8888423e+04 </wgt>
<wgt id='1141'> +7.2946256e+04 </wgt>
<wgt id='1142'> +7.7385967e+04 </wgt>
<wgt id='1143'> +7.2295288e+04 </wgt>
<wgt id='1144'> +7.4611894e+04 </wgt>
<wgt id='1145'> +7.6222127e+04 </wgt>
<wgt id='1146'> +6.7831504e+04 </wgt>
<wgt id='1147'> +7.6299833e+04 </wgt>
<wgt id='1148'> +7.1702401e+04 </wgt>
<wgt id='1149'> +7.0336291e+04 </wgt>
<wgt id='1150'> +7.1832657e+04 </wgt>
<wgt id='1151'> +7.0385473e+04 </wgt>
<wgt id='1152'> +7.5806411e+04 </wgt>
<wgt id='1153'> +7.3435771e+04 </wgt>
<wgt id='1154'> +7.4803850e+04 </wgt>
<wgt id='1155'> +7.5668022e+04 </wgt>
<wgt id='1156'> +7.0978447e+04 </wgt>
<wgt id='1157'> +7.2222651e+04 </wgt>
<wgt id='1158'> +7.6727129e+04 </wgt>
<wgt id='1159'> +7.7195880e+04 </wgt>
<wgt id='1160'> +7.0279245e+04 </wgt>
<wgt id='1161'> +6.8825077e+04 </wgt>
<wgt id='1162'> +7.9004825e+04 </wgt>
<wgt id='1163'> +7.6068097e+04 </wgt>
<wgt id='1164'> +7.7556898e+04 </wgt>
<wgt id='1165'> +8.1280877e+04 </wgt>
<wgt id='1166'> +7.1981709e+04 </wgt>
<wgt id='1167'> +7.2401239e+04 </wgt>
<wgt id='1168'> +7.3006770e+04 </wgt>
<wgt id='1169'> +7.4312413e+04 </wgt>
<wgt id='1170'> +7.7236201e+04 </wgt>
<wgt id='1171'> +6.8247842e+04 </wgt>
<wgt id='1172'> +7.3772244e+04 </wgt>
<wgt id='1173'> +8.0060578e+04 </wgt>
<wgt id='1174'> +7.4260507e+04 </wgt>
<wgt id='1175'> +7.4384570e+04 </wgt>
<wgt id='1176'> +6.9969292e+04 </wgt>
<wgt id='1177'> +7.0004453e+04 </wgt>
<wgt id='1178'> +7.0537739e+04 </wgt>
<wgt id='1179'> +8.1745855e+04 </wgt>
<wgt id='1180'> +7.3123871e+04 </wgt>
<wgt id='1181'> +8.4640075e+04 </wgt>
<wgt id='1182'> +7.6118179e+04 </wgt>
<wgt id='1183'> +7.6383020e+04 </wgt>
<wgt id='1184'> +7.6050945e+04 </wgt>
<wgt id='1185'> +7.4015752e+04 </wgt>
<wgt id='1186'> +8.4127494e+04 </wgt>
<wgt id='1187'> +7.4318484e+04 </wgt>
<wgt id='1188'> +8.2833870e+04 </wgt>
<wgt id='1189'> +7.2084130e+04 </wgt>
<wgt id='1190'> +6.9128737e+04 </wgt>
<wgt id='1191'> +7.3111225e+04 </wgt>
<wgt id='1192'> +7.7190251e+04 </wgt>
<wgt id='1193'> +6.4099832e+04 </wgt>
<wgt id='1194'> +7.4668940e+04 </wgt>
<wgt id='1195'> +7.1205857e+04 </wgt>
<wgt id='1196'> +8.0851449e+04 </wgt>
<wgt id='1197'> +7.3112405e+04 </wgt>
<wgt id='1198'> +7.0796005e+04 </wgt>
<wgt id='1199'> +6.4721045e+04 </wgt>
<wgt id='1200'> +7.6386248e+04 </wgt>
<wgt id='1201'> +7.5861891e+04 </wgt>
<wgt id='1202'> +9.9928815e+04 </wgt>
<wgt id='1203'> +7.6237209e+04 </wgt>
<wgt id='1204'> +7.7552590e+04 </wgt>
<wgt id='1205'> +8.6509672e+04 </wgt>
<wgt id='1206'> +7.7336020e+04 </wgt>
<wgt id='1207'> +7.4283394e+04 </wgt>
<wgt id='1208'> +7.0171380e+04 </wgt>
<wgt id='1209'> +7.7582184e+04 </wgt>
<wgt id='1210'> +7.8012009e+04 </wgt>
<wgt id='1211'> +6.9584619e+04 </wgt>
<wgt id='1212'> +7.4993378e+04 </wgt>
<wgt id='1213'> +7.3440037e+04 </wgt>
<wgt id='1214'> +7.4654462e+04 </wgt>
<wgt id='1215'> +6.8243967e+04 </wgt>
<wgt id='1216'> +6.8936452e+04 </wgt>
<wgt id='1217'> +6.9804987e+04 </wgt>
<wgt id='1218'> +7.1768607e+04 </wgt>
<wgt id='1219'> +7.4165654e+04 </wgt>
<wgt id='1220'> +7.5255412e+04 </wgt>
<wgt id='1221'> +7.6947033e+04 </wgt>
<wgt id='1222'> +7.8011063e+04 </wgt>
<wgt id='1223'> +7.0501586e+04 </wgt>
<wgt id='1224'> +7.0364506e+04 </wgt>
<wgt id='1225'> +7.0728185e+04 </wgt>
<wgt id='1226'> +7.0537131e+04 </wgt>
<wgt id='1227'> +7.0632975e+04 </wgt>
<wgt id='1228'> +7.0152968e+04 </wgt>
<wgt id='1229'> +7.0450327e+04 </wgt>
<wgt id='1230'> +7.0515269e+04 </wgt>
<wgt id='1231'> +7.0215821e+04 </wgt>
<wgt id='1232'> +7.0567929e+04 </wgt>
<wgt id='1233'> +7.0396105e+04 </wgt>
<wgt id='1234'> +7.0372468e+04 </wgt>
<wgt id='1235'> +7.0525353e+04 </wgt>
<wgt id='1236'> +7.0510695e+04 </wgt>
<wgt id='1237'> +7.0625402e+04 </wgt>
<wgt id='1238'> +7.0342465e+04 </wgt>
<wgt id='1239'> +7.0407586e+04 </wgt>
<wgt id='1240'> +7.0471672e+04 </wgt>
<wgt id='1241'> +7.0526578e+04 </wgt>
<wgt id='1242'> +7.0397215e+04 </wgt>
<wgt id='1243'> +7.0301975e+04 </wgt>
<wgt id='1244'> +7.0405377e+04 </wgt>
<wgt id='1245'> +7.0476688e+04 </wgt>
<wgt id='1246'> +7.0381104e+04 </wgt>
<wgt id='1247'> +7.0499499e+04 </wgt>
<wgt id='1248'> +7.0488041e+04 </wgt>
<wgt id='1249'> +7.0650910e+04 </wgt>
<wgt id='1250'> +7.0180068e+04 </wgt>
<wgt id='1251'> +7.0356551e+04 </wgt>
<wgt id='1252'> +7.0266020e+04 </wgt>
<wgt id='1253'> +7.0585703e+04 </wgt>
<wgt id='1254'> +7.0309627e+04 </wgt>
<wgt id='1255'> +7.0812577e+04 </wgt>
<wgt id='1256'> +7.0370064e+04 </wgt>
<wgt id='1257'> +7.0516475e+04 </wgt>
<wgt id='1258'> +7.0866939e+04 </wgt>
<wgt id='1259'> +7.1199601e+04 </wgt>
<wgt id='1260'> +7.0924084e+04 </wgt>
<wgt id='1261'> +7.1087037e+04 </wgt>
<wgt id='1262'> +7.0548145e+04 </wgt>
<wgt id='1263'> +7.0853693e+04 </wgt>
<wgt id='1264'> +7.0925731e+04 </wgt>
<wgt id='1265'> +7.0796698e+04 </wgt>
<wgt id='1266'> +7.0636757e+04 </wgt>
<wgt id='1267'> +7.0850608e+04 </wgt>
<wgt id='1268'> +7.0511379e+04 </wgt>
<wgt id='1269'> +7.0970085e+04 </wgt>
<wgt id='1270'> +7.0169918e+04 </wgt>
<wgt id='1271'> +6.9641653e+04 </wgt>
<wgt id='1272'> +7.0837701e+04 </wgt>
<wgt id='1273'> +7.0372090e+04 </wgt>
<wgt id='1274'> +6.9896594e+04 </wgt>
<wgt id='1275'> +7.0496387e+04 </wgt>
<wgt id='1276'> +7.1255564e+04 </wgt>
<wgt id='1277'> +6.9864017e+04 </wgt>
<wgt id='1278'> +7.0420970e+04 </wgt>
<wgt id='1279'> +7.1476812e+04 </wgt>
<wgt id='1280'> +7.0565743e+04 </wgt>
<wgt id='1281'> +7.1592358e+04 </wgt>
<wgt id='1282'> +7.0456818e+04 </wgt>
<wgt id='1283'> +7.0050198e+04 </wgt>
<wgt id='1284'> +7.0564965e+04 </wgt>
<wgt id='1285'> +7.1255299e+04 </wgt>
<wgt id='1286'> +7.0687249e+04 </wgt>
<wgt id='1287'> +7.0607600e+04 </wgt>
<wgt id='1288'> +7.0808084e+04 </wgt>
<wgt id='1289'> +7.0585075e+04 </wgt>
<wgt id='1290'> +6.9975707e+04 </wgt>
<wgt id='1291'> +6.9757431e+04 </wgt>
<wgt id='1292'> +7.0656554e+04 </wgt>
<wgt id='1293'> +7.0358302e+04 </wgt>
<wgt id='1294'> +7.0734502e+04 </wgt>
<wgt id='1295'> +7.0422162e+04 </wgt>
<wgt id='1296'> +6.9997849e+04 </wgt>
<wgt id='1297'> +7.0704585e+04 </wgt>
<wgt id='1298'> +7.0611406e+04 </wgt>
<wgt id='1299'> +7.0846643e+04 </wgt>
<wgt id='1300'> +7.0365362e+04 </wgt>
<wgt id='1301'> +7.0099856e+04 </wgt>
<wgt id='1302'> +7.0733779e+04 </wgt>
<wgt id='1303'> +7.0454105e+04 </wgt>
<wgt id='1304'> +7.0057426e+04 </wgt>
<wgt id='1305'> +7.0482136e+04 </wgt>
<wgt id='1306'> +7.0550822e+04 </wgt>
<wgt id='1307'> +7.0405681e+04 </wgt>
<wgt id='1308'> +7.0353770e+04 </wgt>
<wgt id='1309'> +7.0620355e+04 </wgt>
<wgt id='1310'> +7.0612776e+04 </wgt>
<wgt id='1311'> +7.0697657e+04 </wgt>
<wgt id='1312'> +6.9673320e+04 </wgt>
<wgt id='1313'> +7.0437107e+04 </wgt>
<wgt id='1314'> +7.0905006e+04 </wgt>
<wgt id='1315'> +7.0829007e+04 </wgt>
<wgt id='1316'> +7.0300991e+04 </wgt>
<wgt id='1317'> +7.0791504e+04 </wgt>
<wgt id='1318'> +7.1019007e+04 </wgt>
<wgt id='1319'> +7.0650649e+04 </wgt>
<wgt id='1320'> +7.0096181e+04 </wgt>
<wgt id='1321'> +7.0088716e+04 </wgt>
<wgt id='1322'> +7.0913650e+04 </wgt>
<wgt id='1323'> +7.0349170e+04 </wgt>
<wgt id='1324'> +6.9608857e+04 </wgt>
<wgt id='1325'> +7.1915906e+04 </wgt>
<wgt id='1326'> +6.8161150e+04 </wgt>
<wgt id='1327'> +6.5011476e+04 </wgt>
<wgt id='1328'> +8.0619092e+04 </wgt>
<wgt id='1329'> +8.3537398e+04 </wgt>
<wgt id='1330'> +8.0523098e+04 </wgt>
<wgt id='1331'> +7.8540573e+04 </wgt>
<wgt id='1332'> +7.1943274e+04 </wgt>
<wgt id='1333'> +7.4755974e+04 </wgt>
<wgt id='1334'> +8.8377592e+04 </wgt>
<wgt id='1335'> +7.6730553e+04 </wgt>
<wgt id='1336'> +7.6222357e+04 </wgt>
<wgt id='1337'> +7.6207372e+04 </wgt>
<wgt id='1338'> +8.8830118e+04 </wgt>
<wgt id='1339'> +8.6222951e+04 </wgt>
<wgt id='1340'> +7.8423923e+04 </wgt>
<wgt id='1341'> +7.8673051e+04 </wgt>
<wgt id='1342'> +7.6334647e+04 </wgt>
<wgt id='1343'> +8.2968331e+04 </wgt>
<wgt id='1344'> +7.9755910e+04 </wgt>
<wgt id='1345'> +8.6136112e+04 </wgt>
<wgt id='1346'> +7.5650836e+04 </wgt>
<wgt id='1347'> +7.9245145e+04 </wgt>
<wgt id='1348'> +8.6617640e+04 </wgt>
<wgt id='1349'> +7.6772123e+04 </wgt>
<wgt id='1350'> +8.1559421e+04 </wgt>
<wgt id='1351'> +8.3326030e+04 </wgt>
<wgt id='1352'> +8.2682183e+04 </wgt>
<wgt id='1353'> +7.6190045e+04 </wgt>
<wgt id='1354'> +8.6834490e+04 </wgt>
<wgt id='1355'> +7.8207666e+04 </wgt>
<wgt id='1356'> +7.8257340e+04 </wgt>
<wgt id='1357'> +7.8779178e+04 </wgt>
<wgt id='1358'> +8.2253727e+04 </wgt>
<wgt id='1359'> +7.7007011e+04 </wgt>
<wgt id='1360'> +8.3054658e+04 </wgt>
<wgt id='1361'> +7.3936060e+04 </wgt>
<wgt id='1362'> +8.6086238e+04 </wgt>
<wgt id='1363'> +8.1846111e+04 </wgt>
<wgt id='1364'> +8.2916497e+04 </wgt>
<wgt id='1365'> +8.2851884e+04 </wgt>
<wgt id='1366'> +7.7296692e+04 </wgt>
<wgt id='1367'> +7.6614232e+04 </wgt>
<wgt id='1368'> +8.0325443e+04 </wgt>
<wgt id='1369'> +8.2449777e+04 </wgt>
<wgt id='1370'> +8.5259765e+04 </wgt>
<wgt id='1371'> +7.5670925e+04 </wgt>
<wgt id='1372'> +7.6809401e+04 </wgt>
<wgt id='1373'> +8.1859041e+04 </wgt>
<wgt id='1374'> +8.0918090e+04 </wgt>
<wgt id='1375'> +8.3169434e+04 </wgt>
<wgt id='1376'> +8.6759007e+04 </wgt>
<wgt id='1377'> +7.9572789e+04 </wgt>
<wgt id='1378'> +8.2725823e+04 </wgt>
<wgt id='1379'> +8.3862163e+04 </wgt>
<wgt id='1380'> +8.0339421e+04 </wgt>
<wgt id='1381'> +8.2905862e+04 </wgt>
<wgt id='1382'> +8.0460480e+04 </wgt>
<wgt id='1383'> +8.5664402e+04 </wgt>
<wgt id='1384'> +8.2838825e+04 </wgt>
<wgt id='1385'> +7.7578174e+04 </wgt>
<wgt id='1386'> +7.7792185e+04 </wgt>
<wgt id='1387'> +8.3064193e+04 </wgt>
<wgt id='1388'> +8.1165998e+04 </wgt>
<wgt id='1389'> +7.6978639e+04 </wgt>
<wgt id='1390'> +8.0964961e+04 </wgt>
<wgt id='1391'> +8.4483751e+04 </wgt>
<wgt id='1392'> +8.2722506e+04 </wgt>
<wgt id='1393'> +7.9983722e+04 </wgt>
<wgt id='1394'> +8.2851884e+04 </wgt>
<wgt id='1395'> +8.0421256e+04 </wgt>
<wgt id='1396'> +8.2215591e+04 </wgt>
<wgt id='1397'> +7.8614265e+04 </wgt>
<wgt id='1398'> +8.1413803e+04 </wgt>
<wgt id='1399'> +8.4291202e+04 </wgt>
<wgt id='1400'> +8.2070982e+04 </wgt>
<wgt id='1401'> +8.0263035e+04 </wgt>
<wgt id='1402'> +7.5731686e+04 </wgt>
<wgt id='1403'> +8.1414651e+04 </wgt>
<wgt id='1404'> +8.1276906e+04 </wgt>
<wgt id='1405'> +7.9324794e+04 </wgt>
<wgt id='1406'> +7.6768975e+04 </wgt>
<wgt id='1407'> +8.3029051e+04 </wgt>
<wgt id='1408'> +7.8475594e+04 </wgt>
<wgt id='1409'> +8.4100427e+04 </wgt>
<wgt id='1410'> +7.9429210e+04 </wgt>
<wgt id='1411'> +8.5266569e+04 </wgt>
<wgt id='1412'> +7.6984986e+04 </wgt>
<wgt id='1413'> +7.7968158e+04 </wgt>
<wgt id='1414'> +8.1338498e+04 </wgt>
<wgt id='1415'> +8.4460319e+04 </wgt>
<wgt id='1416'> +8.3060254e+04 </wgt>
<wgt id='1417'> +7.9638038e+04 </wgt>
<wgt id='1418'> +7.5420735e+04 </wgt>
<wgt id='1419'> +8.4842828e+04 </wgt>
<wgt id='1420'> +7.7258864e+04 </wgt>
<wgt id='1421'> +8.3883336e+04 </wgt>
<wgt id='1422'> +8.1195459e+04 </wgt>
<wgt id='1423'> +7.8525292e+04 </wgt>
<wgt id='1424'> +8.3216746e+04 </wgt>
<wgt id='1425'> +7.8176509e+04 </wgt>
<wgt id='1426'> +7.9820701e+04 </wgt>
<wgt id='1427'> +7.9118993e+04 </wgt>
<wgt id='1428'> +7.1509809e+04 </wgt>
<wgt id='1429'> +7.9234869e+04 </wgt>
<wgt id='1430'> +8.0985526e+04 </wgt>
<wgt id='1431'> +8.0338719e+04 </wgt>
<wgt id='1432'> +8.0651055e+04 </wgt>
<wgt id='1433'> +8.0002046e+04 </wgt>
<wgt id='1434'> +8.0196811e+04 </wgt>
<wgt id='1435'> +8.0348160e+04 </wgt>
<wgt id='1436'> +8.1197638e+04 </wgt>
<wgt id='1437'> +7.9455507e+04 </wgt>
<wgt id='1438'> +7.9995933e+04 </wgt>
<wgt id='1439'> +8.0542330e+04 </wgt>
<wgt id='1440'> +8.0097334e+04 </wgt>
<wgt id='1441'> +8.0454280e+04 </wgt>
<wgt id='1442'> +8.1119106e+04 </wgt>
<wgt id='1443'> +8.0635192e+04 </wgt>
<wgt id='1444'> +8.0052572e+04 </wgt>
<wgt id='1445'> +8.0864893e+04 </wgt>
<wgt id='1446'> +8.0755765e+04 </wgt>
<wgt id='1447'> +7.9519836e+04 </wgt>
<wgt id='1448'> +7.8696141e+04 </wgt>
<wgt id='1449'> +8.1750171e+04 </wgt>
<wgt id='1450'> +8.0548714e+04 </wgt>
<wgt id='1451'> +8.1469695e+04 </wgt>
<wgt id='1452'> +8.0584631e+04 </wgt>
<wgt id='1453'> +7.9823277e+04 </wgt>
<wgt id='1454'> +8.0351263e+04 </wgt>
<wgt id='1455'> +8.0069100e+04 </wgt>
<wgt id='1456'> +8.0104604e+04 </wgt>
<wgt id='1457'> +7.9317363e+04 </wgt>
<wgt id='1458'> +8.0305532e+04 </wgt>
<wgt id='1459'> +8.0246900e+04 </wgt>
<wgt id='1460'> +8.0829326e+04 </wgt>
<wgt id='1461'> +7.9957428e+04 </wgt>
<wgt id='1462'> +8.0086255e+04 </wgt>
<wgt id='1463'> +8.0187832e+04 </wgt>
<wgt id='1464'> +8.0697671e+04 </wgt>
<wgt id='1465'> +8.0325962e+04 </wgt>
<wgt id='1466'> +8.0181395e+04 </wgt>
<wgt id='1467'> +8.0451718e+04 </wgt>
<wgt id='1468'> +8.0370267e+04 </wgt>
<wgt id='1469'> +8.0460684e+04 </wgt>
<wgt id='1470'> +8.0511693e+04 </wgt>
<wgt id='1471'> +8.0181069e+04 </wgt>
<wgt id='1472'> +8.0236946e+04 </wgt>
<wgt id='1473'> +8.0495687e+04 </wgt>
<wgt id='1474'> +8.0438406e+04 </wgt>
<wgt id='1475'> +8.0277238e+04 </wgt>
<wgt id='1476'> +8.0247100e+04 </wgt>
<wgt id='1477'> +8.0314527e+04 </wgt>
<wgt id='1478'> +8.0119041e+04 </wgt>
<wgt id='1479'> +8.0318542e+04 </wgt>
<wgt id='1480'> +8.0520778e+04 </wgt>
<wgt id='1481'> +8.0377917e+04 </wgt>
<wgt id='1482'> +7.9234869e+04 </wgt>
<wgt id='1483'> +8.0985526e+04 </wgt>
<wgt id='1484'> +8.1501234e+04 </wgt>
<wgt id='1485'> +8.2866130e+04 </wgt>
<wgt id='1486'> +8.1872822e+04 </wgt>
<wgt id='1487'> +7.9188708e+04 </wgt>
<wgt id='1488'> +8.1336472e+04 </wgt>
<wgt id='1489'> +8.4467416e+04 </wgt>
<wgt id='1490'> +7.4454194e+04 </wgt>
<wgt id='1491'> +8.4135257e+04 </wgt>
<wgt id='1492'> +8.4299612e+04 </wgt>
<wgt id='1493'> +8.7157726e+04 </wgt>
<wgt id='1494'> +8.1380119e+04 </wgt>
<wgt id='1495'> +8.5214505e+04 </wgt>
<wgt id='1496'> +8.3277321e+04 </wgt>
<wgt id='1497'> +8.4373477e+04 </wgt>
<wgt id='1498'> +7.6497765e+04 </wgt>
<wgt id='1499'> +8.1084978e+04 </wgt>
<wgt id='1500'> +8.1384160e+04 </wgt>
<wgt id='1501'> +7.5657209e+04 </wgt>
<wgt id='1502'> +8.2581670e+04 </wgt>
<wgt id='1503'> +8.2346328e+04 </wgt>
<wgt id='1504'> +8.1760867e+04 </wgt>
<wgt id='1505'> +8.1633537e+04 </wgt>
<wgt id='1506'> +8.3921094e+04 </wgt>
<wgt id='1507'> +7.9147242e+04 </wgt>
<wgt id='1508'> +7.6996696e+04 </wgt>
<wgt id='1509'> +8.3029602e+04 </wgt>
<wgt id='1510'> +8.7203993e+04 </wgt>
<wgt id='1511'> +7.8969824e+04 </wgt>
<wgt id='1512'> +7.9844933e+04 </wgt>
<wgt id='1513'> +8.4281074e+04 </wgt>
<wgt id='1514'> +8.6052077e+04 </wgt>
<wgt id='1515'> +8.0315136e+04 </wgt>
<wgt id='1516'> +8.2048587e+04 </wgt>
<wgt id='1517'> +7.8319829e+04 </wgt>
<wgt id='1518'> +8.0140311e+04 </wgt>
<wgt id='1519'> +8.1237496e+04 </wgt>
<wgt id='1520'> +8.2669617e+04 </wgt>
<wgt id='1521'> +7.7325004e+04 </wgt>
<wgt id='1522'> +7.9046108e+04 </wgt>
<wgt id='1523'> +8.4336035e+04 </wgt>
<wgt id='1524'> +7.8126733e+04 </wgt>
<wgt id='1525'> +8.0083976e+04 </wgt>
<wgt id='1526'> +8.0645007e+04 </wgt>
<wgt id='1527'> +7.6724831e+04 </wgt>
<wgt id='1528'> +8.4258626e+04 </wgt>
<wgt id='1529'> +8.1356468e+04 </wgt>
<wgt id='1530'> +8.5539437e+04 </wgt>
<wgt id='1531'> +8.7044223e+04 </wgt>
<wgt id='1532'> +7.8730574e+04 </wgt>
<wgt id='1533'> +7.4440000e+04 </wgt>
<wgt id='1534'> +8.3174623e+04 </wgt>
<wgt id='1535'> +8.3275584e+04 </wgt>
<wgt id='1536'> +7.8349907e+04 </wgt>
<wgt id='1537'> +8.4829711e+04 </wgt>
<wgt id='1538'> +8.3240167e+04 </wgt>
<wgt id='1539'> +8.1367432e+04 </wgt>
<wgt id='1540'> +8.2291757e+04 </wgt>
<wgt id='1541'> +8.0600806e+04 </wgt>
<wgt id='1542'> +7.9379277e+04 </wgt>
<wgt id='1543'> +8.1038093e+04 </wgt>
<wgt id='1544'> +8.0965440e+04 </wgt>
<wgt id='1545'> +8.1229572e+04 </wgt>
<wgt id='1546'> +8.1977985e+04 </wgt>
<wgt id='1547'> +8.8587688e+04 </wgt>
<wgt id='1548'> +8.3471568e+04 </wgt>
<wgt id='1549'> +8.4124560e+04 </wgt>
<wgt id='1550'> +8.3747424e+04 </wgt>
<wgt id='1551'> +7.9711466e+04 </wgt>
<wgt id='1552'> +8.3648878e+04 </wgt>
<wgt id='1553'> +7.7595456e+04 </wgt>
<wgt id='1554'> +8.2023115e+04 </wgt>
<wgt id='1555'> +7.7424849e+04 </wgt>
<wgt id='1556'> +8.5694961e+04 </wgt>
<wgt id='1557'> +7.9151964e+04 </wgt>
<wgt id='1558'> +7.8606053e+04 </wgt>
<wgt id='1559'> +8.0375568e+04 </wgt>
<wgt id='1560'> +7.7396774e+04 </wgt>
<wgt id='1561'> +9.0422879e+04 </wgt>
<wgt id='1562'> +8.2153375e+04 </wgt>
<wgt id='1563'> +8.1604214e+04 </wgt>
<wgt id='1564'> +8.1120006e+04 </wgt>
<wgt id='1565'> +8.0345980e+04 </wgt>
<wgt id='1566'> +7.5010369e+04 </wgt>
<wgt id='1567'> +7.7712987e+04 </wgt>
<wgt id='1568'> +7.9787674e+04 </wgt>
<wgt id='1569'> +8.2415307e+04 </wgt>
<wgt id='1570'> +8.0513090e+04 </wgt>
<wgt id='1571'> +8.1245800e+04 </wgt>
<wgt id='1572'> +8.2239512e+04 </wgt>
<wgt id='1573'> +8.2459655e+04 </wgt>
<wgt id='1574'> +8.3351890e+04 </wgt>
<wgt id='1575'> +8.0366821e+04 </wgt>
<wgt id='1576'> +8.1041997e+04 </wgt>
<wgt id='1577'> +8.3345791e+04 </wgt>
<wgt id='1578'> +8.9549087e+04 </wgt>
<wgt id='1579'> +8.0625126e+04 </wgt>
<wgt id='1580'> +8.3805610e+04 </wgt>
<wgt id='1581'> +8.0121278e+04 </wgt>
<wgt id='1582'> +7.5714318e+04 </wgt>
<wgt id='1583'> +8.2863562e+04 </wgt>
<wgt id='1584'> +8.0074777e+04 </wgt>
<wgt id='1585'> +7.5897584e+04 </wgt>
<wgt id='1586'> +7.8797518e+04 </wgt>
<wgt id='1587'> +7.8731337e+04 </wgt>
<wgt id='1588'> +7.9234869e+04 </wgt>
<wgt id='1589'> +7.9893253e+04 </wgt>
<wgt id='1590'> +8.0239775e+04 </wgt>
<wgt id='1591'> +8.0985526e+04 </wgt>
<wgt id='1592'> +8.1779160e+04 </wgt>
<wgt id='1593'> +7.6657772e+04 </wgt>
<wgt id='1594'> +7.5436861e+04 </wgt>
<wgt id='1595'> +7.5635902e+04 </wgt>
<wgt id='1596'> +8.0579025e+04 </wgt>
<wgt id='1597'> +7.3581386e+04 </wgt>
<wgt id='1598'> +7.7275531e+04 </wgt>
<wgt id='1599'> +7.5121366e+04 </wgt>
<wgt id='1600'> +7.5980127e+04 </wgt>
<wgt id='1601'> +7.6548321e+04 </wgt>
<wgt id='1602'> +7.8405614e+04 </wgt>
<wgt id='1603'> +7.5646612e+04 </wgt>
<wgt id='1604'> +7.8001480e+04 </wgt>
<wgt id='1605'> +7.4103983e+04 </wgt>
<wgt id='1606'> +7.9953770e+04 </wgt>
<wgt id='1607'> +7.3638790e+04 </wgt>
<wgt id='1608'> +7.3720561e+04 </wgt>
<wgt id='1609'> +7.8901298e+04 </wgt>
<wgt id='1610'> +7.0301404e+04 </wgt>
<wgt id='1611'> +8.3583113e+04 </wgt>
<wgt id='1612'> +7.2017231e+04 </wgt>
<wgt id='1613'> +8.4566768e+04 </wgt>
<wgt id='1614'> +7.7249058e+04 </wgt>
<wgt id='1615'> +7.5379821e+04 </wgt>
<wgt id='1616'> +7.3262327e+04 </wgt>
<wgt id='1617'> +7.9353792e+04 </wgt>
<wgt id='1618'> +7.7186673e+04 </wgt>
<wgt id='1619'> +7.5115586e+04 </wgt>
<wgt id='1620'> +7.9019490e+04 </wgt>
<wgt id='1621'> +7.3527339e+04 </wgt>
<wgt id='1622'> +7.4850818e+04 </wgt>
<wgt id='1623'> +7.7204020e+04 </wgt>
<wgt id='1624'> +7.7343184e+04 </wgt>
<wgt id='1625'> +7.4453992e+04 </wgt>
<wgt id='1626'> +7.8293296e+04 </wgt>
<wgt id='1627'> +7.3650409e+04 </wgt>
<wgt id='1628'> +8.0204868e+04 </wgt>
<wgt id='1629'> +7.3834799e+04 </wgt>
<wgt id='1630'> +7.2328306e+04 </wgt>
<wgt id='1631'> +8.1271615e+04 </wgt>
<wgt id='1632'> +7.4076993e+04 </wgt>
<wgt id='1633'> +7.7839455e+04 </wgt>
<wgt id='1634'> +7.0452596e+04 </wgt>
<wgt id='1635'> +8.3132019e+04 </wgt>
<wgt id='1636'> +7.6027639e+04 </wgt>
<wgt id='1637'> +7.6224970e+04 </wgt>
<wgt id='1638'> +7.6235503e+04 </wgt>
<wgt id='1639'> +7.7008441e+04 </wgt>
<wgt id='1640'> +7.9459859e+04 </wgt>
<wgt id='1641'> +7.2361736e+04 </wgt>
<wgt id='1642'> +7.2198492e+04 </wgt>
<wgt id='1643'> +7.8653054e+04 </wgt>
<wgt id='1644'> +7.2696850e+04 </wgt>
<wgt id='1645'> +8.0436933e+04 </wgt>
<wgt id='1646'> +7.3981408e+04 </wgt>
<wgt id='1647'> +8.0155309e+04 </wgt>
<wgt id='1648'> +7.5927143e+04 </wgt>
<wgt id='1649'> +7.8554996e+04 </wgt>
<wgt id='1650'> +7.7084984e+04 </wgt>
<wgt id='1651'> +7.5847117e+04 </wgt>
<wgt id='1652'> +7.4902868e+04 </wgt>
<wgt id='1653'> +7.5781666e+04 </wgt>
<wgt id='1654'> +7.7522982e+04 </wgt>
<wgt id='1655'> +7.8378796e+04 </wgt>
<wgt id='1656'> +8.1209906e+04 </wgt>
<wgt id='1657'> +8.0343742e+04 </wgt>
<wgt id='1658'> +8.0275497e+04 </wgt>
<wgt id='1659'> +7.9031630e+04 </wgt>
<wgt id='1660'> +8.2640829e+04 </wgt>
<wgt id='1661'> +8.0897963e+04 </wgt>
<wgt id='1662'> +8.1989725e+04 </wgt>
<wgt id='1663'> +8.0374921e+04 </wgt>
<wgt id='1664'> +8.0420677e+04 </wgt>
<wgt id='1665'> +8.1742645e+04 </wgt>
<wgt id='1666'> +8.0354364e+04 </wgt>
<wgt id='1667'> +7.6714416e+04 </wgt>
<wgt id='1668'> +8.4958931e+04 </wgt>
<wgt id='1669'> +7.6443453e+04 </wgt>
<wgt id='1670'> +8.7585992e+04 </wgt>
<wgt id='1671'> +7.9632057e+04 </wgt>
<wgt id='1672'> +8.4777249e+04 </wgt>
<wgt id='1673'> +8.5235925e+04 </wgt>
<wgt id='1674'> +7.8758324e+04 </wgt>
<wgt id='1675'> +8.0325776e+04 </wgt>
<wgt id='1676'> +8.2684077e+04 </wgt>
<wgt id='1677'> +8.5218359e+04 </wgt>
<wgt id='1678'> +7.8101660e+04 </wgt>
<wgt id='1679'> +8.7646800e+04 </wgt>
<wgt id='1680'> +7.5521740e+04 </wgt>
<wgt id='1681'> +8.4726646e+04 </wgt>
<wgt id='1682'> +7.7756849e+04 </wgt>
<wgt id='1683'> +8.2837679e+04 </wgt>
<wgt id='1684'> +7.9799664e+04 </wgt>
<wgt id='1685'> +8.1281052e+04 </wgt>
<wgt id='1686'> +8.0623127e+04 </wgt>
<wgt id='1687'> +7.7267329e+04 </wgt>
<wgt id='1688'> +8.7350906e+04 </wgt>
<wgt id='1689'> +8.1574646e+04 </wgt>
<wgt id='1690'> +8.1067059e+04 </wgt>
<wgt id='1691'> +7.8310810e+04 </wgt>
<wgt id='1692'> +8.5091744e+04 </wgt>
<wgt id='1693'> +8.0164108e+04 </wgt>
<wgt id='1694'> +8.1446661e+04 </wgt>
<wgt id='1695'> +7.9810607e+04 </wgt>
<wgt id='1696'> +8.1893273e+04 </wgt>
<wgt id='1697'> +8.2221508e+04 </wgt>
<wgt id='1698'> +8.0343311e+04 </wgt>
<wgt id='1699'> +8.4772317e+04 </wgt>
<wgt id='1700'> +7.6606608e+04 </wgt>
<wgt id='1701'> +8.1963052e+04 </wgt>
<wgt id='1702'> +8.0071859e+04 </wgt>
<wgt id='1703'> +8.6190278e+04 </wgt>
<wgt id='1704'> +7.7699937e+04 </wgt>
<wgt id='1705'> +8.1456293e+04 </wgt>
<wgt id='1706'> +8.1376845e+04 </wgt>
<wgt id='1707'> +8.2628200e+04 </wgt>
<wgt id='1708'> +8.0268287e+04 </wgt>
<wgt id='1709'> +7.8774701e+04 </wgt>
<wgt id='1710'> +8.3634993e+04 </wgt>
<wgt id='1711'> +7.6816558e+04 </wgt>
<wgt id='1712'> +8.4086411e+04 </wgt>
<wgt id='1713'> +8.1048776e+04 </wgt>
<wgt id='1714'> +8.0810137e+04 </wgt>
<wgt id='1715'> +8.3392630e+04 </wgt>
<wgt id='1716'> +7.6099780e+04 </wgt>
<wgt id='1717'> +8.3259073e+04 </wgt>
<wgt id='1718'> +8.4230488e+04 </wgt>
<wgt id='1719'> +8.2019560e+04 </wgt>
<wgt id='1720'> +8.3203741e+04 </wgt>
<wgt id='1721'> +8.3309628e+04 </wgt>
<wgt id='1722'> +8.1940943e+04 </wgt>
<wgt id='1723'> +8.5424065e+04 </wgt>
<wgt id='1724'> +8.1192858e+04 </wgt>
<wgt id='1725'> +8.4934145e+04 </wgt>
<wgt id='1726'> +8.1847449e+04 </wgt>
<wgt id='1727'> +8.4721859e+04 </wgt>
<wgt id='1728'> +8.3605332e+04 </wgt>
<wgt id='1729'> +8.2916547e+04 </wgt>
<wgt id='1730'> +8.3104236e+04 </wgt>
<wgt id='1731'> +8.3369145e+04 </wgt>
<wgt id='1732'> +8.3834915e+04 </wgt>
<wgt id='1733'> +8.3834915e+04 </wgt>
<wgt id='1734'> +8.4253274e+04 </wgt>
<wgt id='1735'> +8.2578546e+04 </wgt>
<wgt id='1736'> +8.3598948e+04 </wgt>
<wgt id='1737'> +8.2797197e+04 </wgt>
<wgt id='1738'> +8.3758854e+04 </wgt>
<wgt id='1739'> +8.2369603e+04 </wgt>
<wgt id='1740'> +8.3633430e+04 </wgt>
<wgt id='1741'> +8.2356081e+04 </wgt>
<wgt id='1742'> +8.2801281e+04 </wgt>
<wgt id='1743'> +8.3790798e+04 </wgt>
<wgt id='1744'> +8.2806977e+04 </wgt>
<wgt id='1745'> +8.4479964e+04 </wgt>
<wgt id='1746'> +8.4042063e+04 </wgt>
<wgt id='1747'> +8.2785235e+04 </wgt>
<wgt id='1748'> +8.2949767e+04 </wgt>
<wgt id='1749'> +8.4067204e+04 </wgt>
<wgt id='1750'> +8.3597256e+04 </wgt>
<wgt id='1751'> +8.2899306e+04 </wgt>
<wgt id='1752'> +8.3077098e+04 </wgt>
<wgt id='1753'> +8.3517477e+04 </wgt>
<wgt id='1754'> +8.3934341e+04 </wgt>
<wgt id='1755'> +8.2891175e+04 </wgt>
<wgt id='1756'> +8.3976648e+04 </wgt>
<wgt id='1757'> +8.1497390e+04 </wgt>
<wgt id='1758'> +8.2627736e+04 </wgt>
<wgt id='1759'> +8.3730966e+04 </wgt>
<wgt id='1760'> +8.3219155e+04 </wgt>
<wgt id='1761'> +8.3448311e+04 </wgt>
<wgt id='1762'> +8.3317154e+04 </wgt>
<wgt id='1763'> +8.2898763e+04 </wgt>
<wgt id='1764'> +8.3360240e+04 </wgt>
<wgt id='1765'> +8.2868683e+04 </wgt>
<wgt id='1766'> +8.3101435e+04 </wgt>
<wgt id='1767'> +8.3588217e+04 </wgt>
<wgt id='1768'> +8.3889175e+04 </wgt>
<wgt id='1769'> +8.2725079e+04 </wgt>
<wgt id='1770'> +8.3277860e+04 </wgt>
<wgt id='1771'> +8.3425231e+04 </wgt>
<wgt id='1772'> +8.3521670e+04 </wgt>
<wgt id='1773'> +8.3193141e+04 </wgt>
<wgt id='1774'> +8.5582762e+04 </wgt>
<wgt id='1775'> +8.1905053e+04 </wgt>
<wgt id='1776'> +8.0816159e+04 </wgt>
<wgt id='1777'> +8.4764974e+04 </wgt>
<wgt id='1778'> +8.4769615e+04 </wgt>
<wgt id='1779'> +8.2453851e+04 </wgt>
<wgt id='1780'> +8.0302551e+04 </wgt>
<wgt id='1781'> +8.3679941e+04 </wgt>
<wgt id='1782'> +8.3259073e+04 </wgt>
<wgt id='1783'> +8.3589698e+04 </wgt>
<wgt id='1784'> +8.0123963e+04 </wgt>
<wgt id='1785'> +8.0458611e+04 </wgt>
<wgt id='1786'> +8.2142069e+04 </wgt>
<wgt id='1787'> +7.9858027e+04 </wgt>
<wgt id='1788'> +8.1342187e+04 </wgt>
<wgt id='1789'> +7.9863717e+04 </wgt>
<wgt id='1790'> +8.0386078e+04 </wgt>
<wgt id='1791'> +8.0087815e+04 </wgt>
<wgt id='1792'> +8.0746416e+04 </wgt>
<wgt id='1793'> +7.9612927e+04 </wgt>
<wgt id='1794'> +7.9961220e+04 </wgt>
<wgt id='1795'> +7.9831013e+04 </wgt>
<wgt id='1796'> +8.0262964e+04 </wgt>
<wgt id='1797'> +7.8109213e+04 </wgt>
<wgt id='1798'> +8.0195780e+04 </wgt>
<wgt id='1799'> +7.9556653e+04 </wgt>
<wgt id='1800'> +7.4881002e+04 </wgt>
<wgt id='1801'> +8.0120666e+04 </wgt>
<wgt id='1802'> +7.9084063e+04 </wgt>
<wgt id='1803'> +7.9329418e+04 </wgt>
<wgt id='1804'> +8.0235267e+04 </wgt>
<wgt id='1805'> +8.1047230e+04 </wgt>
<wgt id='1806'> +7.9347700e+04 </wgt>
<wgt id='1807'> +7.9852233e+04 </wgt>
<wgt id='1808'> +8.0166847e+04 </wgt>
<wgt id='1809'> +8.0357521e+04 </wgt>
<wgt id='1810'> +8.0306817e+04 </wgt>
<wgt id='1811'> +8.0104180e+04 </wgt>
<wgt id='1812'> +8.0604073e+04 </wgt>
<wgt id='1813'> +8.2593944e+04 </wgt>
<wgt id='1814'> +7.9791065e+04 </wgt>
<wgt id='1815'> +7.9943756e+04 </wgt>
<wgt id='1816'> +8.0160742e+04 </wgt>
<wgt id='1817'> +8.0018214e+04 </wgt>
<wgt id='1818'> +8.0206862e+04 </wgt>
<wgt id='1819'> +8.0579091e+04 </wgt>
<wgt id='1820'> +8.0242021e+04 </wgt>
<wgt id='1821'> +7.9674304e+04 </wgt>
<wgt id='1822'> +7.9889272e+04 </wgt>
<wgt id='1823'> +8.0137307e+04 </wgt>
<wgt id='1824'> +8.0326385e+04 </wgt>
<wgt id='1825'> +7.9208783e+04 </wgt>
<wgt id='1826'> +8.0938361e+04 </wgt>
<wgt id='1827'> +8.3069096e+04 </wgt>
<wgt id='1828'> +8.3240407e+04 </wgt>
<wgt id='1829'> +8.2864055e+04 </wgt>
<wgt id='1830'> +8.2980013e+04 </wgt>
<wgt id='1831'> +8.3122872e+04 </wgt>
<wgt id='1832'> +8.3169993e+04 </wgt>
<wgt id='1833'> +8.2933822e+04 </wgt>
<wgt id='1834'> +8.2561608e+04 </wgt>
<wgt id='1835'> +8.3524691e+04 </wgt>
<wgt id='1836'> +8.3287460e+04 </wgt>
<wgt id='1837'> +8.2807921e+04 </wgt>
<wgt id='1838'> +8.3174713e+04 </wgt>
<wgt id='1839'> +8.2929355e+04 </wgt>
<wgt id='1840'> +8.2945081e+04 </wgt>
<wgt id='1841'> +8.3164655e+04 </wgt>
<wgt id='1842'> +8.3150655e+04 </wgt>
<wgt id='1843'> +8.3122358e+04 </wgt>
<wgt id='1844'> +8.3055705e+04 </wgt>
<wgt id='1845'> +8.3032135e+04 </wgt>
<wgt id='1846'> +8.2970363e+04 </wgt>
<wgt id='1847'> +8.3128093e+04 </wgt>
<wgt id='1848'> +8.3578684e+04 </wgt>
<wgt id='1849'> +8.2410949e+04 </wgt>
<wgt id='1850'> +8.4547169e+04 </wgt>
<wgt id='1851'> +8.1657369e+04 </wgt>
<wgt id='1852'> +8.6384707e+04 </wgt>
<wgt id='1853'> +8.0023680e+04 </wgt>
<wgt id='1854'> +8.5503898e+04 </wgt>
<wgt id='1855'> +8.0923460e+04 </wgt>
<wgt id='1856'> +8.3931698e+04 </wgt>
<wgt id='1857'> +8.3919207e+04 </wgt>
<wgt id='1858'> +8.3799060e+04 </wgt>
<wgt id='1859'> +8.3882243e+04 </wgt>
<wgt id='1860'> +8.3939365e+04 </wgt>
<wgt id='1861'> +8.4453457e+04 </wgt>
<wgt id='1862'> +8.4360038e+04 </wgt>
<wgt id='1863'> +8.3273809e+04 </wgt>
<wgt id='1864'> +8.3967410e+04 </wgt>
<wgt id='1865'> +8.3795649e+04 </wgt>
<wgt id='1866'> +8.3533633e+04 </wgt>
<wgt id='1867'> +8.3825114e+04 </wgt>
<wgt id='1868'> +8.3276259e+04 </wgt>
<wgt id='1869'> +8.4230981e+04 </wgt>
<wgt id='1870'> +8.3497048e+04 </wgt>
<wgt id='1871'> +8.4141608e+04 </wgt>
<wgt id='1872'> +8.3757025e+04 </wgt>
<wgt id='1873'> +8.3929733e+04 </wgt>
<wgt id='1874'> +8.3877522e+04 </wgt>
<wgt id='1875'> +8.4102999e+04 </wgt>
<wgt id='1876'> +8.3728580e+04 </wgt>
<wgt id='1877'> +8.4054987e+04 </wgt>
<wgt id='1878'> +8.4055437e+04 </wgt>
<wgt id='1879'> +8.3872546e+04 </wgt>
<wgt id='1880'> +8.4058607e+04 </wgt>
<wgt id='1881'> +8.3940294e+04 </wgt>
<wgt id='1882'> +8.3771343e+04 </wgt>
<wgt id='1883'> +8.3894474e+04 </wgt>
<wgt id='1884'> +8.3933836e+04 </wgt>
<wgt id='1885'> +8.3461149e+04 </wgt>
<wgt id='1886'> +3.6396348e+04 </wgt>
<wgt id='1887'> +4.4037938e+04 </wgt>
<wgt id='1888'> +5.0998363e+04 </wgt>
<wgt id='1889'> +5.6366750e+04 </wgt>
</rwgt>
</event>
<event npLO=" -1 " npNLO=" 0 ">
 5      0 +7.4519530e+04 3.70074890e+01 7.55820760e-03 1.19749430e-01
       -1 -1    0    0    0  501 +0.0000000000e+00 +0.0000000000e+00 +1.2221281456e+00 1.2221281456e+00 0.0000000000e+00 0.0000e+00 1.0000e+00
        2 -1    0    0  501    0 +0.0000000000e+00 +0.0000000000e+00 -1.3907865808e+03 1.3907865808e+03 0.0000000000e+00 0.0000e+00 -1.0000e+00
       24  2    1    2    0    0 +0.0000000000e+00 +0.0000000000e+00 -1.3895644527e+03 1.3920087090e+03 8.2455307286e+01 0.0000e+00 0.0000e+00
      -11  1    3    3    0    0 -4.6788627877e+00 +4.0795660791e+01 -7.5690636635e+02 7.5801940945e+02 0.0000000000e+00 0.0000e+00 1.0000e+00
       12  1    3    3    0    0 +4.6788627877e+00 -4.0795660791e+01 -6.3265808634e+02 6.3398929952e+02 0.0000000000e+00 0.0000e+00 -1.0000e+00
#aMCatNLO 1  0  0  1  2 0.14142942E+02 0.00000000E+00 -9  5  0 0.00000000E+00 0.00000000E+00 0.00000000E+00 0.00000000E+00 0.00000000E+00
<rwgt>
<wgt id='1001'> +7.4519530e+04 </wgt>
<wgt id='1002'> +7.2567044e+04 </wgt>
<wgt id='1003'> +7.6949300e+04 </wgt>
<wgt id='1004'> +8.1221973e+04 </wgt>
<wgt id='1005'> +7.9123280e+04 </wgt>
<wgt id='1006'> +8.3833679e+04 </wgt>
<wgt id='1007'> +6.6748800e+04 </wgt>
<wgt id='1008'> +6.4987966e+04 </wgt>
<wgt id='1009'> +6.8940086e+04 </wgt>
<wgt id='1010'> +7.4519530e+04 </wgt>
<wgt id='1011'> +7.4510349e+04 </wgt>
<wgt id='1012'> +7.4890085e+04 </wgt>
<wgt id='1013'> +7.3883467e+04 </wgt>
<wgt id='1014'> +7.4220327e+04 </wgt>
<wgt id='1015'> +7.4348539e+04 </wgt>
<wgt id='1016'> +7.4437883e+04 </wgt>
<wgt id='1017'> +7.4423887e+04 </wgt>
<wgt id='1018'> +7.4456859e+04 </wgt>
<wgt id='1019'> +7.4147822e+04 </wgt>
<wgt id='1020'> +7.4339734e+04 </wgt>
<wgt id='1021'> +7.4604449e+04 </wgt>
<wgt id='1022'> +7.4301401e+04 </wgt>
<wgt id='1023'> +7.4545128e+04 </wgt>
<wgt id='1024'> +7.4354993e+04 </wgt>
<wgt id='1025'> +7.4462165e+04 </wgt>
<wgt id='1026'> +7.4498659e+04 </wgt>
<wgt id='1027'> +7.4442147e+04 </wgt>
<wgt id='1028'> +7.4582692e+04 </wgt>
<wgt id='1029'> +7.4731965e+04 </wgt>
<wgt id='1030'> +7.4772244e+04 </wgt>
<wgt id='1031'> +7.4626379e+04 </wgt>
<wgt id='1032'> +7.4515740e+04 </wgt>
<wgt id='1033'> +7.4408360e+04 </wgt>
<wgt id='1034'> +7.4746132e+04 </wgt>
<wgt id='1035'> +7.4513466e+04 </wgt>
<wgt id='1036'> +7.4492703e+04 </wgt>
<wgt id='1037'> +7.4423625e+04 </wgt>
<wgt id='1038'> +7.4667135e+04 </wgt>
<wgt id='1039'> +7.4891981e+04 </wgt>
<wgt id='1040'> +7.4390249e+04 </wgt>
<wgt id='1041'> +7.5040915e+04 </wgt>
<wgt id='1042'> +7.4694419e+04 </wgt>
<wgt id='1043'> +7.4600559e+04 </wgt>
<wgt id='1044'> +7.4676520e+04 </wgt>
<wgt id='1045'> +7.4450779e+04 </wgt>
<wgt id='1046'> +7.4324124e+04 </wgt>
<wgt id='1047'> +7.4742892e+04 </wgt>
<wgt id='1048'> +7.4440364e+04 </wgt>
<wgt id='1049'> +7.4543204e+04 </wgt>
<wgt id='1050'> +7.4639223e+04 </wgt>
<wgt id='1051'> +7.4636325e+04 </wgt>
<wgt id='1052'> +7.4509203e+04 </wgt>
<wgt id='1053'> +7.4478932e+04 </wgt>
<wgt id='1054'> +7.4307721e+04 </wgt>
<wgt id='1055'> +7.4520770e+04 </wgt>
<wgt id='1056'> +7.4526548e+04 </wgt>
<wgt id='1057'> +7.4358502e+04 </wgt>
<wgt id='1058'> +7.4379761e+04 </wgt>
<wgt id='1059'> +7.4511468e+04 </wgt>
<wgt id='1060'> +7.4506340e+04 </wgt>
<wgt id='1061'> +7.4480173e+04 </wgt>
<wgt id='1062'> +7.4510193e+04 </wgt>
<wgt id='1063'> +7.4466976e+04 </wgt>
<wgt id='1064'> +7.4578689e+04 </wgt>
<wgt id='1065'> +7.4585593e+04 </wgt>
<wgt id='1066'> +7.4573898e+04 </wgt>
<wgt id='1067'> +7.4594935e+04 </wgt>
<wgt id='1068'> +7.4561009e+04 </wgt>
<wgt id='1069'> +7.4487398e+04 </wgt>
<wgt id='1070'> +7.4534139e+04 </wgt>
<wgt id='1071'> +7.4574447e+04 </wgt>
<wgt id='1072'> +7.4492274e+04 </wgt>
<wgt id='1073'> +7.4464208e+04 </wgt>
<wgt id='1074'> +7.4549237e+04 </wgt>
<wgt id='1075'> +7.4505047e+04 </wgt>
<wgt id='1076'> +7.4377220e+04 </wgt>
<wgt id='1077'> +7.4559717e+04 </wgt>
<wgt id='1078'> +7.4496599e+04 </wgt>
<wgt id='1079'> +7.4557681e+04 </wgt>
<wgt id='1080'> +7.4486064e+04 </wgt>
<wgt id='1081'> +7.4549773e+04 </wgt>
<wgt id='1082'> +7.4508878e+04 </wgt>
<wgt id='1083'> +7.4612821e+04 </wgt>
<wgt id='1084'> +7.4507615e+04 </wgt>
<wgt id='1085'> +7.4529782e+04 </wgt>
<wgt id='1086'> +7.4520726e+04 </wgt>
<wgt id='1087'> +7.4499657e+04 </wgt>
<wgt id='1088'> +7.4488117e+04 </wgt>
<wgt id='1089'> +7.4586137e+04 </wgt>
<wgt id='1090'> +7.4515033e+04 </wgt>
<wgt id='1091'> +7.4534929e+04 </wgt>
<wgt id='1092'> +7.4545277e+04 </wgt>
<wgt id='1093'> +7.4555970e+04 </wgt>
<wgt id='1094'> +7.4502874e+04 </wgt>
<wgt id='1095'> +7.4554662e+04 </wgt>
<wgt id='1096'> +7.4506509e+04 </wgt>
<wgt id='1097'> +7.4553358e+04 </wgt>
<wgt id='1098'> +7.4549153e+04 </wgt>
<wgt id='1099'> +7.4539533e+04 </wgt>
<wgt id='1100'> +7.4558064e+04 </wgt>
<wgt id='1101'> +7.4516511e+04 </wgt>
<wgt id='1102'> +7.4559496e+04 </wgt>
<wgt id='1103'> +7.4525134e+04 </wgt>
<wgt id='1104'> +7.4523044e+04 </wgt>
<wgt id='1105'> +7.4554980e+04 </wgt>
<wgt id='1106'> +7.4498402e+04 </wgt>
<wgt id='1107'> +7.4495918e+04 </wgt>
<wgt id='1108'> +7.4510828e+04 </wgt>
<wgt id='1109'> +7.4560464e+04 </wgt>
<wgt id='1110'> +7.4519527e+04 </wgt>
<wgt id='1111'> +7.3686642e+04 </wgt>
<wgt id='1112'> +7.5191373e+04 </wgt>
<wgt id='1113'> +7.4519527e+04 </wgt>
<wgt id='1114'> +7.3826759e+04 </wgt>
<wgt id='1115'> +7.6647617e+04 </wgt>
<wgt id='1116'> +7.1962316e+04 </wgt>
<wgt id='1117'> +7.4568033e+04 </wgt>
<wgt id='1118'> +7.3781360e+04 </wgt>
<wgt id='1119'> +7.4297249e+04 </wgt>
<wgt id='1120'> +7.7237867e+04 </wgt>
<wgt id='1121'> +7.5234250e+04 </wgt>
<wgt id='1122'> +7.3753874e+04 </wgt>
<wgt id='1123'> +7.0342859e+04 </wgt>
<wgt id='1124'> +7.3838941e+04 </wgt>
<wgt id='1125'> +7.3889352e+04 </wgt>
<wgt id='1126'> +7.4444702e+04 </wgt>
<wgt id='1127'> +7.4847171e+04 </wgt>
<wgt id='1128'> +7.5882592e+04 </wgt>
<wgt id='1129'> +7.3507846e+04 </wgt>
<wgt id='1130'> +7.2979182e+04 </wgt>
<wgt id='1131'> +7.4614062e+04 </wgt>
<wgt id='1132'> +7.5726826e+04 </wgt>
<wgt id='1133'> +7.4811037e+04 </wgt>
<wgt id='1134'> +7.6146583e+04 </wgt>
<wgt id='1135'> +7.7187856e+04 </wgt>
<wgt id='1136'> +7.7144875e+04 </wgt>
<wgt id='1137'> +7.3905661e+04 </wgt>
<wgt id='1138'> +7.5435037e+04 </wgt>
<wgt id='1139'> +7.4107831e+04 </wgt>
<wgt id='1140'> +7.4797540e+04 </wgt>
<wgt id='1141'> +7.5409267e+04 </wgt>
<wgt id='1142'> +7.3948760e+04 </wgt>
<wgt id='1143'> +7.4963491e+04 </wgt>
<wgt id='1144'> +7.2927838e+04 </wgt>
<wgt id='1145'> +7.4583913e+04 </wgt>
<wgt id='1146'> +7.5589856e+04 </wgt>
<wgt id='1147'> +7.3659616e+04 </wgt>
<wgt id='1148'> +7.3816953e+04 </wgt>
<wgt id='1149'> +7.5103988e+04 </wgt>
<wgt id='1150'> +7.3045919e+04 </wgt>
<wgt id='1151'> +7.4751618e+04 </wgt>
<wgt id='1152'> +7.6583908e+04 </wgt>
<wgt id='1153'> +7.6182972e+04 </wgt>
<wgt id='1154'> +7.4062275e+04 </wgt>
<wgt id='1155'> +7.4786535e+04 </wgt>
<wgt id='1156'> +7.3705527e+04 </wgt>
<wgt id='1157'> +7.5011913e+04 </wgt>
<wgt id='1158'> +7.3670945e+04 </wgt>
<wgt id='1159'> +7.3980100e+04 </wgt>
<wgt id='1160'> +7.5797445e+04 </wgt>
<wgt id='1161'> +7.2882159e+04 </wgt>
<wgt id='1162'> +7.6843761e+04 </wgt>
<wgt id='1163'> +7.3089391e+04 </wgt>
<wgt id='1164'> +7.4407608e+04 </wgt>
<wgt id='1165'> +7.6202648e+04 </wgt>
<wgt id='1166'> +7.5934660e+04 </wgt>
<wgt id='1167'> +7.6591489e+04 </wgt>
<wgt id='1168'> +7.3927110e+04 </wgt>
<wgt id='1169'> +7.3006737e+04 </wgt>
<wgt id='1170'> +7.3922547e+04 </wgt>
<wgt id='1171'> +7.4823725e+04 </wgt>
<wgt id='1172'> +7.4599576e+04 </wgt>
<wgt id='1173'> +7.3102989e+04 </wgt>
<wgt id='1174'> +7.5515201e+04 </wgt>
<wgt id='1175'> +7.3868152e+04 </wgt>
<wgt id='1176'> +7.4944577e+04 </wgt>
<wgt id='1177'> +7.2765355e+04 </wgt>
<wgt id='1178'> +7.4838520e+04 </wgt>
<wgt id='1179'> +7.2877529e+04 </wgt>
<wgt id='1180'> +7.5192139e+04 </wgt>
<wgt id='1181'> +7.4845269e+04 </wgt>
<wgt id='1182'> +7.5948646e+04 </wgt>
<wgt id='1183'> +7.6732081e+04 </wgt>
<wgt id='1184'> +7.5398179e+04 </wgt>
<wgt id='1185'> +7.2296270e+04 </wgt>
<wgt id='1186'> +7.3282750e+04 </wgt>
<wgt id='1187'> +7.5030782e+04 </wgt>
<wgt id='1188'> +7.2650550e+04 </wgt>
<wgt id='1189'> +7.4001560e+04 </wgt>
<wgt id='1190'> +7.5129223e+04 </wgt>
<wgt id='1191'> +7.6418118e+04 </wgt>
<wgt id='1192'> +7.2468618e+04 </wgt>
<wgt id='1193'> +7.2323389e+04 </wgt>
<wgt id='1194'> +7.5322482e+04 </wgt>
<wgt id='1195'> +7.3507846e+04 </wgt>
<wgt id='1196'> +7.3558946e+04 </wgt>
<wgt id='1197'> +7.4448345e+04 </wgt>
<wgt id='1198'> +7.6668581e+04 </wgt>
<wgt id='1199'> +7.4412376e+04 </wgt>
<wgt id='1200'> +7.5316941e+04 </wgt>
<wgt id='1201'> +7.4235809e+04 </wgt>
<wgt id='1202'> +7.1585615e+04 </wgt>
<wgt id='1203'> +7.4133439e+04 </wgt>
<wgt id='1204'> +7.5823701e+04 </wgt>
<wgt id='1205'> +7.5559599e+04 </wgt>
<wgt id='1206'> +7.4419843e+04 </wgt>
<wgt id='1207'> +7.5091885e+04 </wgt>
<wgt id='1208'> +7.3749170e+04 </wgt>
<wgt id='1209'> +7.7431232e+04 </wgt>
<wgt id='1210'> +7.0373647e+04 </wgt>
<wgt id='1211'> +7.3817371e+04 </wgt>
<wgt id='1212'> +7.4423883e+04 </wgt>
<wgt id='1213'> +7.5070246e+04 </wgt>
<wgt id='1214'> +7.4502732e+04 </wgt>
<wgt id='1215'> +7.0569023e+04 </wgt>
<wgt id='1216'> +7.1200725e+04 </wgt>
<wgt id='1217'> +7.2182126e+04 </wgt>
<wgt id='1218'> +7.3071950e+04 </wgt>
<wgt id='1219'> +7.4384829e+04 </wgt>
<wgt id='1220'> +7.4745760e+04 </wgt>
<wgt id='1221'> +7.6243554e+04 </wgt>
<wgt id='1222'> +7.6784354e+04 </wgt>
<wgt id='1223'> +7.3236813e+04 </wgt>
<wgt id='1224'> +7.2752318e+04 </wgt>
<wgt id='1225'> +7.3904639e+04 </wgt>
<wgt id='1226'> +7.2850485e+04 </wgt>
<wgt id='1227'> +7.3286206e+04 </wgt>
<wgt id='1228'> +7.3232081e+04 </wgt>
<wgt id='1229'> +7.2867423e+04 </wgt>
<wgt id='1230'> +7.3452837e+04 </wgt>
<wgt id='1231'> +7.3680067e+04 </wgt>
<wgt id='1232'> +7.3432661e+04 </wgt>
<wgt id='1233'> +7.3262995e+04 </wgt>
<wgt id='1234'> +7.3170622e+04 </wgt>
<wgt id='1235'> +7.3344233e+04 </wgt>
<wgt id='1236'> +7.3361203e+04 </wgt>
<wgt id='1237'> +7.3082230e+04 </wgt>
<wgt id='1238'> +7.3478395e+04 </wgt>
<wgt id='1239'> +7.3352786e+04 </wgt>
<wgt id='1240'> +7.3276067e+04 </wgt>
<wgt id='1241'> +7.3301254e+04 </wgt>
<wgt id='1242'> +7.3252298e+04 </wgt>
<wgt id='1243'> +7.3138504e+04 </wgt>
<wgt id='1244'> +7.3242744e+04 </wgt>
<wgt id='1245'> +7.3319454e+04 </wgt>
<wgt id='1246'> +7.3335042e+04 </wgt>
<wgt id='1247'> +7.3317819e+04 </wgt>
<wgt id='1248'> +7.3051789e+04 </wgt>
<wgt id='1249'> +7.3236368e+04 </wgt>
<wgt id='1250'> +7.3157399e+04 </wgt>
<wgt id='1251'> +7.3424079e+04 </wgt>
<wgt id='1252'> +7.3459792e+04 </wgt>
<wgt id='1253'> +7.2518609e+04 </wgt>
<wgt id='1254'> +7.2900749e+04 </wgt>
<wgt id='1255'> +7.3416531e+04 </wgt>
<wgt id='1256'> +7.3333099e+04 </wgt>
<wgt id='1257'> +7.3208198e+04 </wgt>
<wgt id='1258'> +7.3395922e+04 </wgt>
<wgt id='1259'> +7.3321345e+04 </wgt>
<wgt id='1260'> +7.3008517e+04 </wgt>
<wgt id='1261'> +7.3282883e+04 </wgt>
<wgt id='1262'> +7.3239198e+04 </wgt>
<wgt id='1263'> +7.3210062e+04 </wgt>
<wgt id='1264'> +7.3341272e+04 </wgt>
<wgt id='1265'> +7.3391696e+04 </wgt>
<wgt id='1266'> +7.3092406e+04 </wgt>
<wgt id='1267'> +7.3265459e+04 </wgt>
<wgt id='1268'> +7.3294110e+04 </wgt>
<wgt id='1269'> +7.3115320e+04 </wgt>
<wgt id='1270'> +7.3175811e+04 </wgt>
<wgt id='1271'> +7.3321724e+04 </wgt>
<wgt id='1272'> +7.3221537e+04 </wgt>
<wgt id='1273'> +7.3192118e+04 </wgt>
<wgt id='1274'> +7.3353277e+04 </wgt>
<wgt id='1275'> +7.3353664e+04 </wgt>
<wgt id='1276'> +7.3223544e+04 </wgt>
<wgt id='1277'> +7.3295003e+04 </wgt>
<wgt id='1278'> +7.3143942e+04 </wgt>
<wgt id='1279'> +7.3264628e+04 </wgt>
<wgt id='1280'> +7.3285665e+04 </wgt>
<wgt id='1281'> +7.3278513e+04 </wgt>
<wgt id='1282'> +7.3235734e+04 </wgt>
<wgt id='1283'> +7.3217969e+04 </wgt>
<wgt id='1284'> +7.3191049e+04 </wgt>
<wgt id='1285'> +7.3141700e+04 </wgt>
<wgt id='1286'> +7.3220699e+04 </wgt>
<wgt id='1287'> +7.3175521e+04 </wgt>
<wgt id='1288'> +7.3190096e+04 </wgt>
<wgt id='1289'> +7.3201534e+04 </wgt>
<wgt id='1290'> +7.3191426e+04 </wgt>
<wgt id='1291'> +7.3278412e+04 </wgt>
<wgt id='1292'> +7.3231085e+04 </wgt>
<wgt id='1293'> +7.3079923e+04 </wgt>
<wgt id='1294'> +7.3175821e+04 </wgt>
<wgt id='1295'> +7.3163784e+04 </wgt>
<wgt id='1296'> +7.3161742e+04 </wgt>
<wgt id='1297'> +7.3291622e+04 </wgt>
<wgt id='1298'> +7.3288784e+04 </wgt>
<wgt id='1299'> +7.3211283e+04 </wgt>
<wgt id='1300'> +7.3152138e+04 </wgt>
<wgt id='1301'> +7.3276311e+04 </wgt>
<wgt id='1302'> +7.3259881e+04 </wgt>
<wgt id='1303'> +7.3185587e+04 </wgt>
<wgt id='1304'> +7.3237516e+04 </wgt>
<wgt id='1305'> +7.3272301e+04 </wgt>
<wgt id='1306'> +7.3285659e+04 </wgt>
<wgt id='1307'> +7.3261204e+04 </wgt>
<wgt id='1308'> +7.3289958e+04 </wgt>
<wgt id='1309'> +7.3175968e+04 </wgt>
<wgt id='1310'> +7.3245200e+04 </wgt>
<wgt id='1311'> +7.3226401e+04 </wgt>
<wgt id='1312'> +7.3257466e+04 </wgt>
<wgt id='1313'> +7.3265633e+04 </wgt>
<wgt id='1314'> +7.3228750e+04 </wgt>
<wgt id='1315'> +7.3240462e+04 </wgt>
<wgt id='1316'> +7.3231420e+04 </wgt>
<wgt id='1317'> +7.3239802e+04 </wgt>
<wgt id='1318'> +7.3232883e+04 </wgt>
<wgt id='1319'> +7.3223469e+04 </wgt>
<wgt id='1320'> +7.3186199e+04 </wgt>
<wgt id='1321'> +7.3264472e+04 </wgt>
<wgt id='1322'> +7.3282623e+04 </wgt>
<wgt id='1323'> +7.3292144e+04 </wgt>
<wgt id='1324'> +7.2283112e+04 </wgt>
<wgt id='1325'> +7.4021769e+04 </wgt>
<wgt id='1326'> +7.4402112e+04 </wgt>
<wgt id='1327'> +7.2885938e+04 </wgt>
<wgt id='1328'> +7.4409973e+04 </wgt>
<wgt id='1329'> +7.4528512e+04 </wgt>
<wgt id='1330'> +7.4390342e+04 </wgt>
<wgt id='1331'> +7.4877657e+04 </wgt>
<wgt id='1332'> +7.4689184e+04 </wgt>
<wgt id='1333'> +7.4648324e+04 </wgt>
<wgt id='1334'> +7.2670369e+04 </wgt>
<wgt id='1335'> +7.3500188e+04 </wgt>
<wgt id='1336'> +7.5174453e+04 </wgt>
<wgt id='1337'> +7.4906380e+04 </wgt>
<wgt id='1338'> +7.4245420e+04 </wgt>
<wgt id='1339'> +7.4720596e+04 </wgt>
<wgt id='1340'> +7.4948032e+04 </wgt>
<wgt id='1341'> +7.3203145e+04 </wgt>
<wgt id='1342'> +7.4293619e+04 </wgt>
<wgt id='1343'> +7.3959705e+04 </wgt>
<wgt id='1344'> +7.2194788e+04 </wgt>
<wgt id='1345'> +7.6274612e+04 </wgt>
<wgt id='1346'> +7.3701864e+04 </wgt>
<wgt id='1347'> +7.5302201e+04 </wgt>
<wgt id='1348'> +7.4332465e+04 </wgt>
<wgt id='1349'> +7.4615678e+04 </wgt>
<wgt id='1350'> +7.2162496e+04 </wgt>
<wgt id='1351'> +7.4240241e+04 </wgt>
<wgt id='1352'> +7.4223065e+04 </wgt>
<wgt id='1353'> +7.4466138e+04 </wgt>
<wgt id='1354'> +7.5682302e+04 </wgt>
<wgt id='1355'> +7.5039000e+04 </wgt>
<wgt id='1356'> +7.5038403e+04 </wgt>
<wgt id='1357'> +7.4040777e+04 </wgt>
<wgt id='1358'> +7.3851829e+04 </wgt>
<wgt id='1359'> +7.4614323e+04 </wgt>
<wgt id='1360'> +7.3314650e+04 </wgt>
<wgt id='1361'> +7.5826954e+04 </wgt>
<wgt id='1362'> +7.4562360e+04 </wgt>
<wgt id='1363'> +7.4464241e+04 </wgt>
<wgt id='1364'> +7.4595383e+04 </wgt>
<wgt id='1365'> +7.3489246e+04 </wgt>
<wgt id='1366'> +7.4319433e+04 </wgt>
<wgt id='1367'> +7.4426717e+04 </wgt>
<wgt id='1368'> +7.5542379e+04 </wgt>
<wgt id='1369'> +7.3335751e+04 </wgt>
<wgt id='1370'> +7.4138100e+04 </wgt>
<wgt id='1371'> +7.4415562e+04 </wgt>
<wgt id='1372'> +7.4260085e+04 </wgt>
<wgt id='1373'> +7.4104614e+04 </wgt>
<wgt id='1374'> +7.5716664e+04 </wgt>
<wgt id='1375'> +7.5572631e+04 </wgt>
<wgt id='1376'> +7.5085004e+04 </wgt>
<wgt id='1377'> +7.4039616e+04 </wgt>
<wgt id='1378'> +7.3457478e+04 </wgt>
<wgt id='1379'> +7.5689432e+04 </wgt>
<wgt id='1380'> +7.2763125e+04 </wgt>
<wgt id='1381'> +7.4181849e+04 </wgt>
<wgt id='1382'> +7.3442515e+04 </wgt>
<wgt id='1383'> +7.4688213e+04 </wgt>
<wgt id='1384'> +7.4003663e+04 </wgt>
<wgt id='1385'> +7.2962430e+04 </wgt>
<wgt id='1386'> +7.4704393e+04 </wgt>
<wgt id='1387'> +7.4296653e+04 </wgt>
<wgt id='1388'> +7.5665119e+04 </wgt>
<wgt id='1389'> +7.3513431e+04 </wgt>
<wgt id='1390'> +7.2544513e+04 </wgt>
<wgt id='1391'> +7.4433554e+04 </wgt>
<wgt id='1392'> +7.4357435e+04 </wgt>
<wgt id='1393'> +7.3143108e+04 </wgt>
<wgt id='1394'> +7.3489246e+04 </wgt>
<wgt id='1395'> +7.4187828e+04 </wgt>
<wgt id='1396'> +7.2798327e+04 </wgt>
<wgt id='1397'> +7.5127835e+04 </wgt>
<wgt id='1398'> +7.5502744e+04 </wgt>
<wgt id='1399'> +7.5087401e+04 </wgt>
<wgt id='1400'> +7.6366402e+04 </wgt>
<wgt id='1401'> +7.5083945e+04 </wgt>
<wgt id='1402'> +7.4671922e+04 </wgt>
<wgt id='1403'> +7.3507965e+04 </wgt>
<wgt id='1404'> +7.5941249e+04 </wgt>
<wgt id='1405'> +7.2578268e+04 </wgt>
<wgt id='1406'> +7.4005994e+04 </wgt>
<wgt id='1407'> +7.4033303e+04 </wgt>
<wgt id='1408'> +7.6036520e+04 </wgt>
<wgt id='1409'> +7.4223226e+04 </wgt>
<wgt id='1410'> +7.4488118e+04 </wgt>
<wgt id='1411'> +7.4581529e+04 </wgt>
<wgt id='1412'> +7.5957075e+04 </wgt>
<wgt id='1413'> +7.4670252e+04 </wgt>
<wgt id='1414'> +7.4525348e+04 </wgt>
<wgt id='1415'> +7.3971118e+04 </wgt>
<wgt id='1416'> +7.5471432e+04 </wgt>
<wgt id='1417'> +7.4045073e+04 </wgt>
<wgt id='1418'> +7.6117839e+04 </wgt>
<wgt id='1419'> +7.6195718e+04 </wgt>
<wgt id='1420'> +7.4263664e+04 </wgt>
<wgt id='1421'> +7.4354113e+04 </wgt>
<wgt id='1422'> +7.4140530e+04 </wgt>
<wgt id='1423'> +7.4236135e+04 </wgt>
<wgt id='1424'> +7.4493425e+04 </wgt>
<wgt id='1425'> +7.3329337e+04 </wgt>
<wgt id='1426'> +7.4298330e+04 </wgt>
<wgt id='1427'> +7.4691582e+04 </wgt>
<wgt id='1428'> +7.4855266e+04 </wgt>
<wgt id='1429'> +7.4257372e+04 </wgt>
<wgt id='1430'> +7.4520374e+04 </wgt>
<wgt id='1431'> +7.4348377e+04 </wgt>
<wgt id='1432'> +7.5000608e+04 </wgt>
<wgt id='1433'> +7.4391642e+04 </wgt>
<wgt id='1434'> +7.4176598e+04 </wgt>
<wgt id='1435'> +7.4240303e+04 </wgt>
<wgt id='1436'> +7.4333149e+04 </wgt>
<wgt id='1437'> +7.4377324e+04 </wgt>
<wgt id='1438'> +7.4414846e+04 </wgt>
<wgt id='1439'> +7.4233495e+04 </wgt>
<wgt id='1440'> +7.4405325e+04 </wgt>
<wgt id='1441'> +7.4361539e+04 </wgt>
<wgt id='1442'> +7.4429846e+04 </wgt>
<wgt id='1443'> +7.4349987e+04 </wgt>
<wgt id='1444'> +7.4211872e+04 </wgt>
<wgt id='1445'> +7.4274551e+04 </wgt>
<wgt id='1446'> +7.4378806e+04 </wgt>
<wgt id='1447'> +7.4129940e+04 </wgt>
<wgt id='1448'> +7.4528301e+04 </wgt>
<wgt id='1449'> +7.4322366e+04 </wgt>
<wgt id='1450'> +7.4028055e+04 </wgt>
<wgt id='1451'> +7.4354514e+04 </wgt>
<wgt id='1452'> +7.4400322e+04 </wgt>
<wgt id='1453'> +7.4298798e+04 </wgt>
<wgt id='1454'> +7.4321764e+04 </wgt>
<wgt id='1455'> +7.4233974e+04 </wgt>
<wgt id='1456'> +7.4173609e+04 </wgt>
<wgt id='1457'> +7.4477480e+04 </wgt>
<wgt id='1458'> +7.4332599e+04 </wgt>
<wgt id='1459'> +7.4386745e+04 </wgt>
<wgt id='1460'> +7.4373373e+04 </wgt>
<wgt id='1461'> +7.4394831e+04 </wgt>
<wgt id='1462'> +7.4381932e+04 </wgt>
<wgt id='1463'> +7.4317604e+04 </wgt>
<wgt id='1464'> +7.4340791e+04 </wgt>
<wgt id='1465'> +7.4333432e+04 </wgt>
<wgt id='1466'> +7.4325759e+04 </wgt>
<wgt id='1467'> +7.4218691e+04 </wgt>
<wgt id='1468'> +7.4303077e+04 </wgt>
<wgt id='1469'> +7.4364790e+04 </wgt>
<wgt id='1470'> +7.4380636e+04 </wgt>
<wgt id='1471'> +7.4275516e+04 </wgt>
<wgt id='1472'> +7.4364151e+04 </wgt>
<wgt id='1473'> +7.4337079e+04 </wgt>
<wgt id='1474'> +7.4320164e+04 </wgt>
<wgt id='1475'> +7.4340803e+04 </wgt>
<wgt id='1476'> +7.4337503e+04 </wgt>
<wgt id='1477'> +7.4316696e+04 </wgt>
<wgt id='1478'> +7.4300698e+04 </wgt>
<wgt id='1479'> +7.4337483e+04 </wgt>
<wgt id='1480'> +7.4350721e+04 </wgt>
<wgt id='1481'> +7.4325627e+04 </wgt>
<wgt id='1482'> +7.4257372e+04 </wgt>
<wgt id='1483'> +7.4520374e+04 </wgt>
<wgt id='1484'> +7.8051950e+04 </wgt>
<wgt id='1485'> +7.7931634e+04 </wgt>
<wgt id='1486'> +7.8726131e+04 </wgt>
<wgt id='1487'> +7.6746661e+04 </wgt>
<wgt id='1488'> +7.6976421e+04 </wgt>
<wgt id='1489'> +7.8149291e+04 </wgt>
<wgt id='1490'> +7.5911431e+04 </wgt>
<wgt id='1491'> +7.8390416e+04 </wgt>
<wgt id='1492'> +7.5668020e+04 </wgt>
<wgt id='1493'> +7.8407705e+04 </wgt>
<wgt id='1494'> +7.7942843e+04 </wgt>
<wgt id='1495'> +7.6506420e+04 </wgt>
<wgt id='1496'> +7.7270592e+04 </wgt>
<wgt id='1497'> +7.8012394e+04 </wgt>
<wgt id='1498'> +7.8916168e+04 </wgt>
<wgt id='1499'> +7.8478186e+04 </wgt>
<wgt id='1500'> +7.7564222e+04 </wgt>
<wgt id='1501'> +7.7350688e+04 </wgt>
<wgt id='1502'> +7.8485788e+04 </wgt>
<wgt id='1503'> +7.7497450e+04 </wgt>
<wgt id='1504'> +7.8094942e+04 </wgt>
<wgt id='1505'> +7.8379627e+04 </wgt>
<wgt id='1506'> +7.8515145e+04 </wgt>
<wgt id='1507'> +7.7210160e+04 </wgt>
<wgt id='1508'> +7.5345785e+04 </wgt>
<wgt id='1509'> +7.7367762e+04 </wgt>
<wgt id='1510'> +7.8931444e+04 </wgt>
<wgt id='1511'> +7.7847349e+04 </wgt>
<wgt id='1512'> +7.7356329e+04 </wgt>
<wgt id='1513'> +7.7982542e+04 </wgt>
<wgt id='1514'> +7.7999182e+04 </wgt>
<wgt id='1515'> +7.7640327e+04 </wgt>
<wgt id='1516'> +7.6451362e+04 </wgt>
<wgt id='1517'> +7.8655237e+04 </wgt>
<wgt id='1518'> +7.7830097e+04 </wgt>
<wgt id='1519'> +7.7904499e+04 </wgt>
<wgt id='1520'> +7.8611196e+04 </wgt>
<wgt id='1521'> +7.6195123e+04 </wgt>
<wgt id='1522'> +7.8703868e+04 </wgt>
<wgt id='1523'> +7.8761466e+04 </wgt>
<wgt id='1524'> +7.7666613e+04 </wgt>
<wgt id='1525'> +7.8161719e+04 </wgt>
<wgt id='1526'> +7.8195935e+04 </wgt>
<wgt id='1527'> +7.8412643e+04 </wgt>
<wgt id='1528'> +7.8974382e+04 </wgt>
<wgt id='1529'> +7.9482941e+04 </wgt>
<wgt id='1530'> +7.8007159e+04 </wgt>
<wgt id='1531'> +7.7784391e+04 </wgt>
<wgt id='1532'> +7.6209157e+04 </wgt>
<wgt id='1533'> +7.8627610e+04 </wgt>
<wgt id='1534'> +7.8803133e+04 </wgt>
<wgt id='1535'> +7.7449117e+04 </wgt>
<wgt id='1536'> +7.8647226e+04 </wgt>
<wgt id='1537'> +7.7879029e+04 </wgt>
<wgt id='1538'> +7.9639254e+04 </wgt>
<wgt id='1539'> +7.8181073e+04 </wgt>
<wgt id='1540'> +7.9243016e+04 </wgt>
<wgt id='1541'> +7.8854645e+04 </wgt>
<wgt id='1542'> +7.8795897e+04 </wgt>
<wgt id='1543'> +7.8565272e+04 </wgt>
<wgt id='1544'> +7.9549575e+04 </wgt>
<wgt id='1545'> +7.8229988e+04 </wgt>
<wgt id='1546'> +7.7927816e+04 </wgt>
<wgt id='1547'> +7.8988631e+04 </wgt>
<wgt id='1548'> +7.7444486e+04 </wgt>
<wgt id='1549'> +7.9294625e+04 </wgt>
<wgt id='1550'> +7.9464042e+04 </wgt>
<wgt id='1551'> +7.9992176e+04 </wgt>
<wgt id='1552'> +7.8018249e+04 </wgt>
<wgt id='1553'> +8.0038554e+04 </wgt>
<wgt id='1554'> +7.6733553e+04 </wgt>
<wgt id='1555'> +7.8157052e+04 </wgt>
<wgt id='1556'> +7.8194075e+04 </wgt>
<wgt id='1557'> +7.7032453e+04 </wgt>
<wgt id='1558'> +7.8815955e+04 </wgt>
<wgt id='1559'> +7.8837192e+04 </wgt>
<wgt id='1560'> +7.7699489e+04 </wgt>
<wgt id='1561'> +7.8615238e+04 </wgt>
<wgt id='1562'> +7.8476308e+04 </wgt>
<wgt id='1563'> +7.7820840e+04 </wgt>
<wgt id='1564'> +7.7545931e+04 </wgt>
<wgt id='1565'> +7.6863294e+04 </wgt>
<wgt id='1566'> +7.8017484e+04 </wgt>
<wgt id='1567'> +7.9781855e+04 </wgt>
<wgt id='1568'> +7.8434923e+04 </wgt>
<wgt id='1569'> +7.8959712e+04 </wgt>
<wgt id='1570'> +7.9758324e+04 </wgt>
<wgt id='1571'> +7.9033305e+04 </wgt>
<wgt id='1572'> +7.7253366e+04 </wgt>
<wgt id='1573'> +7.8704336e+04 </wgt>
<wgt id='1574'> +7.7164027e+04 </wgt>
<wgt id='1575'> +7.5844060e+04 </wgt>
<wgt id='1576'> +7.9125690e+04 </wgt>
<wgt id='1577'> +7.5875394e+04 </wgt>
<wgt id='1578'> +7.7502828e+04 </wgt>
<wgt id='1579'> +7.7675472e+04 </wgt>
<wgt id='1580'> +7.9443673e+04 </wgt>
<wgt id='1581'> +7.8639369e+04 </wgt>
<wgt id='1582'> +7.7512775e+04 </wgt>
<wgt id='1583'> +7.7593529e+04 </wgt>
<wgt id='1584'> +7.6898368e+04 </wgt>
<wgt id='1585'> +7.5653336e+04 </wgt>
<wgt id='1586'> +7.4567595e+04 </wgt>
<wgt id='1587'> +7.3773064e+04 </wgt>
<wgt id='1588'> +7.4257372e+04 </wgt>
<wgt id='1589'> +7.4227054e+04 </wgt>
<wgt id='1590'> +7.4247767e+04 </wgt>
<wgt id='1591'> +7.4520374e+04 </wgt>
<wgt id='1592'> +7.4635000e+04 </wgt>
<wgt id='1593'> +7.6475370e+04 </wgt>
<wgt id='1594'> +7.6705229e+04 </wgt>
<wgt id='1595'> +7.6990595e+04 </wgt>
<wgt id='1596'> +7.6551583e+04 </wgt>
<wgt id='1597'> +7.6210604e+04 </wgt>
<wgt id='1598'> +7.5587614e+04 </wgt>
<wgt id='1599'> +7.7314641e+04 </wgt>
<wgt id='1600'> +7.5427879e+04 </wgt>
<wgt id='1601'> +7.7444043e+04 </wgt>
<wgt id='1602'> +7.6307463e+04 </wgt>
<wgt id='1603'> +7.6812373e+04 </wgt>
<wgt id='1604'> +7.7102527e+04 </wgt>
<wgt id='1605'> +7.6063019e+04 </wgt>
<wgt id='1606'> +7.5631619e+04 </wgt>
<wgt id='1607'> +7.6996105e+04 </wgt>
<wgt id='1608'> +7.5553485e+04 </wgt>
<wgt id='1609'> +7.6882454e+04 </wgt>
<wgt id='1610'> +7.6221112e+04 </wgt>
<wgt id='1611'> +7.6570526e+04 </wgt>
<wgt id='1612'> +7.6868252e+04 </wgt>
<wgt id='1613'> +7.5497452e+04 </wgt>
<wgt id='1614'> +7.6069277e+04 </wgt>
<wgt id='1615'> +7.7189992e+04 </wgt>
<wgt id='1616'> +7.5976849e+04 </wgt>
<wgt id='1617'> +7.6526748e+04 </wgt>
<wgt id='1618'> +7.6585620e+04 </wgt>
<wgt id='1619'> +7.6168487e+04 </wgt>
<wgt id='1620'> +7.6976569e+04 </wgt>
<wgt id='1621'> +7.6124460e+04 </wgt>
<wgt id='1622'> +7.7159803e+04 </wgt>
<wgt id='1623'> +7.5867609e+04 </wgt>
<wgt id='1624'> +7.6750623e+04 </wgt>
<wgt id='1625'> +7.5170802e+04 </wgt>
<wgt id='1626'> +7.5861234e+04 </wgt>
<wgt id='1627'> +7.6998936e+04 </wgt>
<wgt id='1628'> +7.6361972e+04 </wgt>
<wgt id='1629'> +7.7015333e+04 </wgt>
<wgt id='1630'> +7.5994924e+04 </wgt>
<wgt id='1631'> +7.6591947e+04 </wgt>
<wgt id='1632'> +7.6008088e+04 </wgt>
<wgt id='1633'> +7.7010884e+04 </wgt>
<wgt id='1634'> +7.7355440e+04 </wgt>
<wgt id='1635'> +7.5783791e+04 </wgt>
<wgt id='1636'> +7.7027317e+04 </wgt>
<wgt id='1637'> +7.6840975e+04 </wgt>
<wgt id='1638'> +7.6292675e+04 </wgt>
<wgt id='1639'> +7.6524892e+04 </wgt>
<wgt id='1640'> +7.7222902e+04 </wgt>
<wgt id='1641'> +7.5899290e+04 </wgt>
<wgt id='1642'> +7.6191630e+04 </wgt>
<wgt id='1643'> +7.6917919e+04 </wgt>
<wgt id='1644'> +7.7092879e+04 </wgt>
<wgt id='1645'> +7.5752235e+04 </wgt>
<wgt id='1646'> +7.6471167e+04 </wgt>
<wgt id='1647'> +7.7170566e+04 </wgt>
<wgt id='1648'> +7.6917424e+04 </wgt>
<wgt id='1649'> +7.6947792e+04 </wgt>
<wgt id='1650'> +7.8173218e+04 </wgt>
<wgt id='1651'> +7.4789074e+04 </wgt>
<wgt id='1652'> +7.6201273e+04 </wgt>
<wgt id='1653'> +7.6339910e+04 </wgt>
<wgt id='1654'> +7.6611764e+04 </wgt>
<wgt id='1655'> +7.6754111e+04 </wgt>
<wgt id='1656'> +7.7684321e+04 </wgt>
<wgt id='1657'> +7.8181061e+04 </wgt>
<wgt id='1658'> +7.7687175e+04 </wgt>
<wgt id='1659'> +7.7736177e+04 </wgt>
<wgt id='1660'> +7.7702463e+04 </wgt>
<wgt id='1661'> +7.8042335e+04 </wgt>
<wgt id='1662'> +7.7219477e+04 </wgt>
<wgt id='1663'> +7.7608256e+04 </wgt>
<wgt id='1664'> +7.7328812e+04 </wgt>
<wgt id='1665'> +7.6949730e+04 </wgt>
<wgt id='1666'> +7.7861875e+04 </wgt>
<wgt id='1667'> +7.7267320e+04 </wgt>
<wgt id='1668'> +7.7989132e+04 </wgt>
<wgt id='1669'> +7.7977695e+04 </wgt>
<wgt id='1670'> +7.7162869e+04 </wgt>
<wgt id='1671'> +7.7591245e+04 </wgt>
<wgt id='1672'> +7.7973556e+04 </wgt>
<wgt id='1673'> +7.8684659e+04 </wgt>
<wgt id='1674'> +7.7104138e+04 </wgt>
<wgt id='1675'> +7.8583025e+04 </wgt>
<wgt id='1676'> +7.7104786e+04 </wgt>
<wgt id='1677'> +7.7621679e+04 </wgt>
<wgt id='1678'> +7.7809684e+04 </wgt>
<wgt id='1679'> +7.7632883e+04 </wgt>
<wgt id='1680'> +7.8573168e+04 </wgt>
<wgt id='1681'> +7.7679331e+04 </wgt>
<wgt id='1682'> +7.7335015e+04 </wgt>
<wgt id='1683'> +7.7336231e+04 </wgt>
<wgt id='1684'> +7.8085112e+04 </wgt>
<wgt id='1685'> +7.8750132e+04 </wgt>
<wgt id='1686'> +7.6719841e+04 </wgt>
<wgt id='1687'> +7.8218719e+04 </wgt>
<wgt id='1688'> +7.6953992e+04 </wgt>
<wgt id='1689'> +7.7033605e+04 </wgt>
<wgt id='1690'> +7.8752639e+04 </wgt>
<wgt id='1691'> +7.7673658e+04 </wgt>
<wgt id='1692'> +7.7926654e+04 </wgt>
<wgt id='1693'> +7.7963310e+04 </wgt>
<wgt id='1694'> +7.8066903e+04 </wgt>
<wgt id='1695'> +7.7324322e+04 </wgt>
<wgt id='1696'> +7.8740776e+04 </wgt>
<wgt id='1697'> +7.8236946e+04 </wgt>
<wgt id='1698'> +7.7378005e+04 </wgt>
<wgt id='1699'> +7.7535844e+04 </wgt>
<wgt id='1700'> +7.7757234e+04 </wgt>
<wgt id='1701'> +7.7321240e+04 </wgt>
<wgt id='1702'> +7.8318823e+04 </wgt>
<wgt id='1703'> +7.7765272e+04 </wgt>
<wgt id='1704'> +7.8041147e+04 </wgt>
<wgt id='1705'> +7.7252220e+04 </wgt>
<wgt id='1706'> +7.8366658e+04 </wgt>
<wgt id='1707'> +7.6176422e+04 </wgt>
<wgt id='1708'> +7.8711355e+04 </wgt>
<wgt id='1709'> +7.7341373e+04 </wgt>
<wgt id='1710'> +7.8332998e+04 </wgt>
<wgt id='1711'> +7.7822471e+04 </wgt>
<wgt id='1712'> +7.7689275e+04 </wgt>
<wgt id='1713'> +7.9325467e+04 </wgt>
<wgt id='1714'> +7.5926680e+04 </wgt>
<wgt id='1715'> +7.5651410e+04 </wgt>
<wgt id='1716'> +7.7594079e+04 </wgt>
<wgt id='1717'> +7.3621716e+04 </wgt>
<wgt id='1718'> +7.3769547e+04 </wgt>
<wgt id='1719'> +7.3432159e+04 </wgt>
<wgt id='1720'> +7.3664492e+04 </wgt>
<wgt id='1721'> +7.3582639e+04 </wgt>
<wgt id='1722'> +7.3616258e+04 </wgt>
<wgt id='1723'> +7.3630658e+04 </wgt>
<wgt id='1724'> +7.3813027e+04 </wgt>
<wgt id='1725'> +7.3466088e+04 </wgt>
<wgt id='1726'> +7.3514830e+04 </wgt>
<wgt id='1727'> +7.3732014e+04 </wgt>
<wgt id='1728'> +7.3498934e+04 </wgt>
<wgt id='1729'> +7.3741648e+04 </wgt>
<wgt id='1730'> +7.3394247e+04 </wgt>
<wgt id='1731'> +7.3781588e+04 </wgt>
<wgt id='1732'> +7.4150521e+04 </wgt>
<wgt id='1733'> +7.4150521e+04 </wgt>
<wgt id='1734'> +7.3302005e+04 </wgt>
<wgt id='1735'> +7.3835122e+04 </wgt>
<wgt id='1736'> +7.3237496e+04 </wgt>
<wgt id='1737'> +7.4146495e+04 </wgt>
<wgt id='1738'> +7.3784208e+04 </wgt>
<wgt id='1739'> +7.3311780e+04 </wgt>
<wgt id='1740'> +7.3528003e+04 </wgt>
<wgt id='1741'> +7.3844606e+04 </wgt>
<wgt id='1742'> +7.3619253e+04 </wgt>
<wgt id='1743'> +7.3617178e+04 </wgt>
<wgt id='1744'> +7.3535691e+04 </wgt>
<wgt id='1745'> +7.3854026e+04 </wgt>
<wgt id='1746'> +7.3078230e+04 </wgt>
<wgt id='1747'> +7.3907174e+04 </wgt>
<wgt id='1748'> +7.3825706e+04 </wgt>
<wgt id='1749'> +7.2905784e+04 </wgt>
<wgt id='1750'> +7.3607790e+04 </wgt>
<wgt id='1751'> +7.3635304e+04 </wgt>
<wgt id='1752'> +7.3600562e+04 </wgt>
<wgt id='1753'> +7.3649623e+04 </wgt>
<wgt id='1754'> +7.3578534e+04 </wgt>
<wgt id='1755'> +7.3636270e+04 </wgt>
<wgt id='1756'> +7.3241309e+04 </wgt>
<wgt id='1757'> +7.4575872e+04 </wgt>
<wgt id='1758'> +7.3641857e+04 </wgt>
<wgt id='1759'> +7.3335050e+04 </wgt>
<wgt id='1760'> +7.3697518e+04 </wgt>
<wgt id='1761'> +7.3584097e+04 </wgt>
<wgt id='1762'> +7.3559210e+04 </wgt>
<wgt id='1763'> +7.3955084e+04 </wgt>
<wgt id='1764'> +7.3542186e+04 </wgt>
<wgt id='1765'> +7.3959838e+04 </wgt>
<wgt id='1766'> +7.3648609e+04 </wgt>
<wgt id='1767'> +7.3666304e+04 </wgt>
<wgt id='1768'> +7.3767974e+04 </wgt>
<wgt id='1769'> +7.3525331e+04 </wgt>
<wgt id='1770'> +7.3379715e+04 </wgt>
<wgt id='1771'> +7.4032339e+04 </wgt>
<wgt id='1772'> +7.3702101e+04 </wgt>
<wgt id='1773'> +7.3350412e+04 </wgt>
<wgt id='1774'> +7.3481919e+04 </wgt>
<wgt id='1775'> +7.3692184e+04 </wgt>
<wgt id='1776'> +7.3797486e+04 </wgt>
<wgt id='1777'> +7.3547751e+04 </wgt>
<wgt id='1778'> +7.3722524e+04 </wgt>
<wgt id='1779'> +7.3775773e+04 </wgt>
<wgt id='1780'> +7.3698573e+04 </wgt>
<wgt id='1781'> +7.3900271e+04 </wgt>
<wgt id='1782'> +7.3621716e+04 </wgt>
<wgt id='1783'> +7.3638206e+04 </wgt>
<wgt id='1784'> +7.4594015e+04 </wgt>
<wgt id='1785'> +7.4468643e+04 </wgt>
<wgt id='1786'> +7.3654757e+04 </wgt>
<wgt id='1787'> +7.4581667e+04 </wgt>
<wgt id='1788'> +7.4828282e+04 </wgt>
<wgt id='1789'> +7.4646495e+04 </wgt>
<wgt id='1790'> +7.4112062e+04 </wgt>
<wgt id='1791'> +7.4477418e+04 </wgt>
<wgt id='1792'> +7.4356847e+04 </wgt>
<wgt id='1793'> +7.4701250e+04 </wgt>
<wgt id='1794'> +7.5009336e+04 </wgt>
<wgt id='1795'> +7.3983429e+04 </wgt>
<wgt id='1796'> +7.4633607e+04 </wgt>
<wgt id='1797'> +7.4897244e+04 </wgt>
<wgt id='1798'> +7.4476678e+04 </wgt>
<wgt id='1799'> +7.5321561e+04 </wgt>
<wgt id='1800'> +7.4860784e+04 </wgt>
<wgt id='1801'> +7.4925220e+04 </wgt>
<wgt id='1802'> +7.4620459e+04 </wgt>
<wgt id='1803'> +7.4828463e+04 </wgt>
<wgt id='1804'> +7.3664124e+04 </wgt>
<wgt id='1805'> +7.4592831e+04 </wgt>
<wgt id='1806'> +7.4422991e+04 </wgt>
<wgt id='1807'> +7.4652398e+04 </wgt>
<wgt id='1808'> +7.4614775e+04 </wgt>
<wgt id='1809'> +7.3814159e+04 </wgt>
<wgt id='1810'> +7.4557473e+04 </wgt>
<wgt id='1811'> +7.4486577e+04 </wgt>
<wgt id='1812'> +7.4625783e+04 </wgt>
<wgt id='1813'> +7.4517680e+04 </wgt>
<wgt id='1814'> +7.4528944e+04 </wgt>
<wgt id='1815'> +7.4561414e+04 </wgt>
<wgt id='1816'> +7.4588707e+04 </wgt>
<wgt id='1817'> +7.4354004e+04 </wgt>
<wgt id='1818'> +7.4594138e+04 </wgt>
<wgt id='1819'> +7.4425691e+04 </wgt>
<wgt id='1820'> +7.4537845e+04 </wgt>
<wgt id='1821'> +7.4552475e+04 </wgt>
<wgt id='1822'> +7.4444382e+04 </wgt>
<wgt id='1823'> +7.4483665e+04 </wgt>
<wgt id='1824'> +7.4630349e+04 </wgt>
<wgt id='1825'> +7.4302194e+04 </wgt>
<wgt id='1826'> +7.5112609e+04 </wgt>
<wgt id='1827'> +8.3480714e+04 </wgt>
<wgt id='1828'> +8.3586016e+04 </wgt>
<wgt id='1829'> +8.3410042e+04 </wgt>
<wgt id='1830'> +8.3711008e+04 </wgt>
<wgt id='1831'> +8.3283869e+04 </wgt>
<wgt id='1832'> +8.3341511e+04 </wgt>
<wgt id='1833'> +8.3653324e+04 </wgt>
<wgt id='1834'> +8.3109869e+04 </wgt>
<wgt id='1835'> +8.3868984e+04 </wgt>
<wgt id='1836'> +8.3883545e+04 </wgt>
<wgt id='1837'> +8.3090147e+04 </wgt>
<wgt id='1838'> +8.3835142e+04 </wgt>
<wgt id='1839'> +8.3156288e+04 </wgt>
<wgt id='1840'> +8.3311118e+04 </wgt>
<wgt id='1841'> +8.3698452e+04 </wgt>
<wgt id='1842'> +8.3623784e+04 </wgt>
<wgt id='1843'> +8.3867791e+04 </wgt>
<wgt id='1844'> +8.3702167e+04 </wgt>
<wgt id='1845'> +8.3271739e+04 </wgt>
<wgt id='1846'> +8.3418266e+04 </wgt>
<wgt id='1847'> +8.3560921e+04 </wgt>
<wgt id='1848'> +8.2924220e+04 </wgt>
<wgt id='1849'> +8.3994340e+04 </wgt>
<wgt id='1850'> +8.3472197e+04 </wgt>
<wgt id='1851'> +8.3401989e+04 </wgt>
<wgt id='1852'> +8.3463099e+04 </wgt>
<wgt id='1853'> +8.3227399e+04 </wgt>
<wgt id='1854'> +8.3262783e+04 </wgt>
<wgt id='1855'> +8.3596651e+04 </wgt>
<wgt id='1856'> +7.4643656e+04 </wgt>
<wgt id='1857'> +7.4632107e+04 </wgt>
<wgt id='1858'> +7.4649242e+04 </wgt>
<wgt id='1859'> +7.4614716e+04 </wgt>
<wgt id='1860'> +7.4643537e+04 </wgt>
<wgt id='1861'> +7.4606911e+04 </wgt>
<wgt id='1862'> +7.4473533e+04 </wgt>
<wgt id='1863'> +7.4516045e+04 </wgt>
<wgt id='1864'> +7.4450002e+04 </wgt>
<wgt id='1865'> +7.4490829e+04 </wgt>
<wgt id='1866'> +7.4877324e+04 </wgt>
<wgt id='1867'> +7.4563001e+04 </wgt>
<wgt id='1868'> +7.4667956e+04 </wgt>
<wgt id='1869'> +7.4707542e+04 </wgt>
<wgt id='1870'> +7.4547823e+04 </wgt>
<wgt id='1871'> +7.4622531e+04 </wgt>
<wgt id='1872'> +7.4586467e+04 </wgt>
<wgt id='1873'> +7.4606635e+04 </wgt>
<wgt id='1874'> +7.4645304e+04 </wgt>
<wgt id='1875'> +7.4736760e+04 </wgt>
<wgt id='1876'> +7.4386284e+04 </wgt>
<wgt id='1877'> +7.4511591e+04 </wgt>
<wgt id='1878'> +7.4552713e+04 </wgt>
<wgt id='1879'> +7.4837250e+04 </wgt>
<wgt id='1880'> +7.4842944e+04 </wgt>
<wgt id='1881'> +7.4839358e+04 </wgt>
<wgt id='1882'> +7.4628948e+04 </wgt>
<wgt id='1883'> +7.4611302e+04 </wgt>
<wgt id='1884'> +7.4630492e+04 </wgt>
<wgt id='1885'> +7.3988665e+04 </wgt>
<wgt id='1886'> +7.4015724e+04 </wgt>
<wgt id='1887'> +8.0039598e+04 </wgt>
<wgt id='1888'> +7.5443154e+04 </wgt>
<wgt id='1889'> +8.7108908e+04 </wgt>
</rwgt>
</event>
<event npLO=" -1 " npNLO=" 0 ">
 5      1 +7.4519530e+04 2.01397920e+01 7.55820760e-03 1.20134400e-01
        1 -1    0    0  501    0 +0.0000000000e+00 +0.0000000000e+00 +1.1014789554e+03 1.1014789554e+03 0.0000000000e+00 0.0000e+00 -1.0000e+00
       -2 -1    0    0    0  501 +0.0000000000e+00 +0.0000000000e+00 -1.4558411554e+00 1.4558411554e+00 0.0000000000e+00 0.0000e+00 1.0000e+00
      -24  2    1    2    0    0 +0.0000000000e+00 +0.0000000000e+00 +1.1000231143e+03 1.1029347966e+03 8.0089409913e+01 0.0000e+00 0.0000e+00
       13  1    3    3    0    0 -7.2716273269e+00 +2.8096656008e+01 +9.2997943576e+02 9.3043218430e+02 0.0000000000e+00 0.0000e+00 -1.0000e+00
      -14  1    3    3    0    0 +7.2716273269e+00 -2.8096656008e+01 +1.7004367850e+02 1.7250261227e+02 0.0000000000e+00 0.0000e+00 1.0000e+00
#aMCatNLO 1  0  0  1  2 0.20113897E+02 0.00000000E+00 -9  5  0 0.00000000E+00 0.00000000E+00 0.00000000E+00 0.00000000E+00 0.00000000E+00
<rwgt>
<wgt id='1001'> +7.4519530e+04 </wgt>
<wgt id='1002'> +7.9119865e+04 </wgt>
<wgt id='1003'> +6.8785552e+04 </wgt>
<wgt id='1004'> +7.9899155e+04 </wgt>
<wgt id='1005'> +8.5071691e+04 </wgt>
<wgt id='1006'> +7.3452025e+04 </wgt>
<wgt id='1007'> +6.8098621e+04 </wgt>
<wgt id='1008'> +7.2096329e+04 </wgt>
<wgt id='1009'> +6.3115716e+04 </wgt>
<wgt id='1010'> +7.4519530e+04 </wgt>
<wgt id='1011'> +7.4843381e+04 </wgt>
<wgt id='1012'> +7.4750163e+04 </wgt>
<wgt id='1013'> +7.4111266e+04 </wgt>
<wgt id='1014'> +7.4578401e+04 </wgt>
<wgt id='1015'> +7.4264905e+04 </wgt>
<wgt id='1016'> +7.4305607e+04 </wgt>
<wgt id='1017'> +7.4266228e+04 </wgt>
<wgt id='1018'> +7.4002505e+04 </wgt>
<wgt id='1019'> +7.4521492e+04 </wgt>
<wgt id='1020'> +7.4533206e+04 </wgt>
<wgt id='1021'> +7.4573043e+04 </wgt>
<wgt id='1022'> +7.4478487e+04 </wgt>
<wgt id='1023'> +7.4568803e+04 </wgt>
<wgt id='1024'> +7.4272349e+04 </wgt>
<wgt id='1025'> +7.4397044e+04 </wgt>
<wgt id='1026'> +7.4301228e+04 </wgt>
<wgt id='1027'> +7.4610722e+04 </wgt>
<wgt id='1028'> +7.4451018e+04 </wgt>
<wgt id='1029'> +7.4738730e+04 </wgt>
<wgt id='1030'> +7.4449729e+04 </wgt>
<wgt id='1031'> +7.4717286e+04 </wgt>
<wgt id='1032'> +7.4604427e+04 </wgt>
<wgt id='1033'> +7.4178987e+04 </wgt>
<wgt id='1034'> +7.4806621e+04 </wgt>
<wgt id='1035'> +7.4596633e+04 </wgt>
<wgt id='1036'> +7.4500095e+04 </wgt>
<wgt id='1037'> +7.4400530e+04 </wgt>
<wgt id='1038'> +7.4753105e+04 </wgt>
<wgt id='1039'> +7.5039756e+04 </wgt>
<wgt id='1040'> +7.4308525e+04 </wgt>
<wgt id='1041'> +7.5296868e+04 </wgt>
<wgt id='1042'> +7.4732920e+04 </wgt>
<wgt id='1043'> +7.4727258e+04 </wgt>
<wgt id='1044'> +7.4746947e+04 </wgt>
<wgt id='1045'> +7.4490464e+04 </wgt>
<wgt id='1046'> +7.4001109e+04 </wgt>
<wgt id='1047'> +7.5061911e+04 </wgt>
<wgt id='1048'> +7.4321183e+04 </wgt>
<wgt id='1049'> +7.4451035e+04 </wgt>
<wgt id='1050'> +7.4539799e+04 </wgt>
<wgt id='1051'> +7.4663640e+04 </wgt>
<wgt id='1052'> +7.4480185e+04 </wgt>
<wgt id='1053'> +7.4444245e+04 </wgt>
<wgt id='1054'> +7.4475046e+04 </wgt>
<wgt id='1055'> +7.4724556e+04 </wgt>
<wgt id='1056'> +7.4533511e+04 </wgt>
<wgt id='1057'> +7.4651434e+04 </wgt>
<wgt id='1058'> +7.4515333e+04 </wgt>
<wgt id='1059'> +7.4417059e+04 </wgt>
<wgt id='1060'> +7.4297206e+04 </wgt>
<wgt id='1061'> +7.4393100e+04 </wgt>
<wgt id='1062'> +7.4364066e+04 </wgt>
<wgt id='1063'> +7.4659177e+04 </wgt>
<wgt id='1064'> +7.4473997e+04 </wgt>
<wgt id='1065'> +7.4699879e+04 </wgt>
<wgt id='1066'> +7.4233410e+04 </wgt>
<wgt id='1067'> +7.4467825e+04 </wgt>
<wgt id='1068'> +7.4750393e+04 </wgt>
<wgt id='1069'> +7.4464884e+04 </wgt>
<wgt id='1070'> +7.4440686e+04 </wgt>
<wgt id='1071'> +7.4704753e+04 </wgt>
<wgt id='1072'> +7.4707519e+04 </wgt>
<wgt id='1073'> +7.4505474e+04 </wgt>
<wgt id='1074'> +7.4571063e+04 </wgt>
<wgt id='1075'> +7.4455908e+04 </wgt>
<wgt id='1076'> +7.4423572e+04 </wgt>
<wgt id='1077'> +7.4509560e+04 </wgt>
<wgt id='1078'> +7.4667157e+04 </wgt>
<wgt id='1079'> +7.4565894e+04 </wgt>
<wgt id='1080'> +7.4428546e+04 </wgt>
<wgt id='1081'> +7.4614345e+04 </wgt>
<wgt id='1082'> +7.4514373e+04 </wgt>
<wgt id='1083'> +7.4544527e+04 </wgt>
<wgt id='1084'> +7.4636303e+04 </wgt>
<wgt id='1085'> +7.4356899e+04 </wgt>
<wgt id='1086'> +7.4496751e+04 </wgt>
<wgt id='1087'> +7.4615034e+04 </wgt>
<wgt id='1088'> +7.4543346e+04 </wgt>
<wgt id='1089'> +7.4435234e+04 </wgt>
<wgt id='1090'> +7.4525066e+04 </wgt>
<wgt id='1091'> +7.4501663e+04 </wgt>
<wgt id='1092'> +7.4535380e+04 </wgt>
<wgt id='1093'> +7.4515037e+04 </wgt>
<wgt id='1094'> +7.4495488e+04 </wgt>
<wgt id='1095'> +7.4531739e+04 </wgt>
<wgt id='1096'> +7.4572470e+04 </wgt>
<wgt id='1097'> +7.4544144e+04 </wgt>
<wgt id='1098'> +7.4584326e+04 </wgt>
<wgt id='1099'> +7.4493692e+04 </wgt>
<wgt id='1100'> +7.4500989e+04 </wgt>
<wgt id='1101'> +7.4491435e+04 </wgt>
<wgt id='1102'> +7.4536351e+04 </wgt>
<wgt id='1103'> +7.4510959e+04 </wgt>
<wgt id='1104'> +7.4567176e+04 </wgt>
<wgt id='1105'> +7.4491774e+04 </wgt>
<wgt id='1106'> +7.4513486e+04 </wgt>
<wgt id='1107'> +7.4515429e+04 </wgt>
<wgt id='1108'> +7.4497719e+04 </wgt>
<wgt id='1109'> +7.4527485e+04 </wgt>
<wgt id='1110'> +7.4519532e+04 </wgt>
<wgt id='1111'> +7.4667847e+04 </wgt>
<wgt id='1112'> +7.4034335e+04 </wgt>
<wgt id='1113'> +7.4519532e+04 </wgt>
<wgt id='1114'> +7.5330046e+04 </wgt>
<wgt id='1115'> +7.5900850e+04 </wgt>
<wgt id='1116'> +7.3614590e+04 </wgt>
<wgt id='1117'> +7.1517290e+04 </wgt>
<wgt id='1118'> +7.3050405e+04 </wgt>
<wgt id='1119'> +7.5977569e+04 </wgt>
<wgt id='1120'> +7.4993770e+04 </wgt>
<wgt id='1121'> +7.5658086e+04 </wgt>
<wgt id='1122'> +7.5933125e+04 </wgt>
<wgt id='1123'> +7.0353594e+04 </wgt>
<wgt id='1124'> +7.2399739e+04 </wgt>
<wgt id='1125'> +7.3887081e+04 </wgt>
<wgt id='1126'> +7.2817306e+04 </wgt>
<wgt id='1127'> +7.5756135e+04 </wgt>
<wgt id='1128'> +7.6452755e+04 </wgt>
<wgt id='1129'> +7.3627946e+04 </wgt>
<wgt id='1130'> +7.2709518e+04 </wgt>
<wgt id='1131'> +7.4955499e+04 </wgt>
<wgt id='1132'> +7.5685037e+04 </wgt>
<wgt id='1133'> +7.4502685e+04 </wgt>
<wgt id='1134'> +7.6081366e+04 </wgt>
<wgt id='1135'> +7.7761706e+04 </wgt>
<wgt id='1136'> +7.7475756e+04 </wgt>
<wgt id='1137'> +7.2738141e+04 </wgt>
<wgt id='1138'> +7.5879190e+04 </wgt>
<wgt id='1139'> +7.6309723e+04 </wgt>
<wgt id='1140'> +7.3995543e+04 </wgt>
<wgt id='1141'> +7.4948695e+04 </wgt>
<wgt id='1142'> +7.2303808e+04 </wgt>
<wgt id='1143'> +7.4564464e+04 </wgt>
<wgt id='1144'> +7.6018527e+04 </wgt>
<wgt id='1145'> +7.4162104e+04 </wgt>
<wgt id='1146'> +7.7619652e+04 </wgt>
<wgt id='1147'> +7.3511134e+04 </wgt>
<wgt id='1148'> +7.3718518e+04 </wgt>
<wgt id='1149'> +7.6308509e+04 </wgt>
<wgt id='1150'> +7.2978177e+04 </wgt>
<wgt id='1151'> +7.3101504e+04 </wgt>
<wgt id='1152'> +7.1685607e+04 </wgt>
<wgt id='1153'> +7.6461268e+04 </wgt>
<wgt id='1154'> +7.2685950e+04 </wgt>
<wgt id='1155'> +7.4654164e+04 </wgt>
<wgt id='1156'> +7.4020925e+04 </wgt>
<wgt id='1157'> +7.2773914e+04 </wgt>
<wgt id='1158'> +6.9044772e+04 </wgt>
<wgt id='1159'> +7.4740677e+04 </wgt>
<wgt id='1160'> +7.8221430e+04 </wgt>
<wgt id='1161'> +7.4712330e+04 </wgt>
<wgt id='1162'> +7.6394558e+04 </wgt>
<wgt id='1163'> +7.3499712e+04 </wgt>
<wgt id='1164'> +7.4402318e+04 </wgt>
<wgt id='1165'> +7.6545060e+04 </wgt>
<wgt id='1166'> +7.6177901e+04 </wgt>
<wgt id='1167'> +7.6374397e+04 </wgt>
<wgt id='1168'> +7.5505061e+04 </wgt>
<wgt id='1169'> +7.2968950e+04 </wgt>
<wgt id='1170'> +7.4854345e+04 </wgt>
<wgt id='1171'> +7.5929820e+04 </wgt>
<wgt id='1172'> +7.3704051e+04 </wgt>
<wgt id='1173'> +7.5891707e+04 </wgt>
<wgt id='1174'> +7.7415981e+04 </wgt>
<wgt id='1175'> +7.5786668e+04 </wgt>
<wgt id='1176'> +7.5088047e+04 </wgt>
<wgt id='1177'> +7.5287582e+04 </wgt>
<wgt id='1178'> +7.5624927e+04 </wgt>
<wgt id='1179'> +7.2337673e+04 </wgt>
<wgt id='1180'> +7.4346215e+04 </wgt>
<wgt id='1181'> +7.6013716e+04 </wgt>
<wgt id='1182'> +7.5810557e+04 </wgt>
<wgt id='1183'> +7.6061506e+04 </wgt>
<wgt id='1184'> +7.5175175e+04 </wgt>
<wgt id='1185'> +7.2199726e+04 </wgt>
<wgt id='1186'> +7.3756211e+04 </wgt>
<wgt id='1187'> +7.5090967e+04 </wgt>
<wgt id='1188'> +7.2914462e+04 </wgt>
<wgt id='1189'> +7.4039219e+04 </wgt>
<wgt id='1190'> +7.6457176e+04 </wgt>
<wgt id='1191'> +7.6900237e+04 </wgt>
<wgt id='1192'> +7.4463236e+04 </wgt>
<wgt id='1193'> +7.1042506e+04 </wgt>
<wgt id='1194'> +7.5533160e+04 </wgt>
<wgt id='1195'> +7.3627946e+04 </wgt>
<wgt id='1196'> +7.0484302e+04 </wgt>
<wgt id='1197'> +7.3539899e+04 </wgt>
<wgt id='1198'> +7.6456920e+04 </wgt>
<wgt id='1199'> +7.5101753e+04 </wgt>
<wgt id='1200'> +7.5425358e+04 </wgt>
<wgt id='1201'> +7.4533412e+04 </wgt>
<wgt id='1202'> +6.8551996e+04 </wgt>
<wgt id='1203'> +7.3450658e+04 </wgt>
<wgt id='1204'> +7.4609416e+04 </wgt>
<wgt id='1205'> +7.3144601e+04 </wgt>
<wgt id='1206'> +7.2914185e+04 </wgt>
<wgt id='1207'> +7.6023014e+04 </wgt>
<wgt id='1208'> +7.2907464e+04 </wgt>
<wgt id='1209'> +7.6933569e+04 </wgt>
<wgt id='1210'> +7.1256776e+04 </wgt>
<wgt id='1211'> +7.4441400e+04 </wgt>
<wgt id='1212'> +7.7601347e+04 </wgt>
<wgt id='1213'> +7.3116624e+04 </wgt>
<wgt id='1214'> +7.4447489e+04 </wgt>
<wgt id='1215'> +7.5370323e+04 </wgt>
<wgt id='1216'> +7.4711759e+04 </wgt>
<wgt id='1217'> +7.4919550e+04 </wgt>
<wgt id='1218'> +7.5183497e+04 </wgt>
<wgt id='1219'> +7.4597390e+04 </wgt>
<wgt id='1220'> +7.4382281e+04 </wgt>
<wgt id='1221'> +7.3978884e+04 </wgt>
<wgt id='1222'> +7.3314821e+04 </wgt>
<wgt id='1223'> +7.3093950e+04 </wgt>
<wgt id='1224'> +7.2668684e+04 </wgt>
<wgt id='1225'> +7.3623183e+04 </wgt>
<wgt id='1226'> +7.2747076e+04 </wgt>
<wgt id='1227'> +7.3423176e+04 </wgt>
<wgt id='1228'> +7.2927126e+04 </wgt>
<wgt id='1229'> +7.3017727e+04 </wgt>
<wgt id='1230'> +7.3166065e+04 </wgt>
<wgt id='1231'> +7.2982488e+04 </wgt>
<wgt id='1232'> +7.3270003e+04 </wgt>
<wgt id='1233'> +7.3096019e+04 </wgt>
<wgt id='1234'> +7.2967207e+04 </wgt>
<wgt id='1235'> +7.3106893e+04 </wgt>
<wgt id='1236'> +7.3190550e+04 </wgt>
<wgt id='1237'> +7.3123818e+04 </wgt>
<wgt id='1238'> +7.3004919e+04 </wgt>
<wgt id='1239'> +7.2983556e+04 </wgt>
<wgt id='1240'> +7.3053138e+04 </wgt>
<wgt id='1241'> +7.3277408e+04 </wgt>
<wgt id='1242'> +7.3177874e+04 </wgt>
<wgt id='1243'> +7.3040906e+04 </wgt>
<wgt id='1244'> +7.3139411e+04 </wgt>
<wgt id='1245'> +7.3129964e+04 </wgt>
<wgt id='1246'> +7.3130905e+04 </wgt>
<wgt id='1247'> +7.3200347e+04 </wgt>
<wgt id='1248'> +7.2887769e+04 </wgt>
<wgt id='1249'> +7.3034460e+04 </wgt>
<wgt id='1250'> +7.3003426e+04 </wgt>
<wgt id='1251'> +7.3333964e+04 </wgt>
<wgt id='1252'> +7.3381987e+04 </wgt>
<wgt id='1253'> +7.1997591e+04 </wgt>
<wgt id='1254'> +7.2847024e+04 </wgt>
<wgt id='1255'> +7.3343959e+04 </wgt>
<wgt id='1256'> +7.3176675e+04 </wgt>
<wgt id='1257'> +7.2937533e+04 </wgt>
<wgt id='1258'> +7.3333964e+04 </wgt>
<wgt id='1259'> +7.3098269e+04 </wgt>
<wgt id='1260'> +7.2910009e+04 </wgt>
<wgt id='1261'> +7.3022014e+04 </wgt>
<wgt id='1262'> +7.3155164e+04 </wgt>
<wgt id='1263'> +7.2906307e+04 </wgt>
<wgt id='1264'> +7.3365979e+04 </wgt>
<wgt id='1265'> +7.3093854e+04 </wgt>
<wgt id='1266'> +7.3133397e+04 </wgt>
<wgt id='1267'> +7.3175238e+04 </wgt>
<wgt id='1268'> +7.3239002e+04 </wgt>
<wgt id='1269'> +7.2956621e+04 </wgt>
<wgt id='1270'> +7.3058505e+04 </wgt>
<wgt id='1271'> +7.3349415e+04 </wgt>
<wgt id='1272'> +7.2823260e+04 </wgt>
<wgt id='1273'> +7.3029196e+04 </wgt>
<wgt id='1274'> +7.3538511e+04 </wgt>
<wgt id='1275'> +7.3138248e+04 </wgt>
<wgt id='1276'> +7.3396391e+04 </wgt>
<wgt id='1277'> +7.3362172e+04 </wgt>
<wgt id='1278'> +7.2963631e+04 </wgt>
<wgt id='1279'> +7.3267604e+04 </wgt>
<wgt id='1280'> +7.2998139e+04 </wgt>
<wgt id='1281'> +7.3086450e+04 </wgt>
<wgt id='1282'> +7.2897030e+04 </wgt>
<wgt id='1283'> +7.3315212e+04 </wgt>
<wgt id='1284'> +7.3136953e+04 </wgt>
<wgt id='1285'> +7.3265299e+04 </wgt>
<wgt id='1286'> +7.3029885e+04 </wgt>
<wgt id='1287'> +7.3268162e+04 </wgt>
<wgt id='1288'> +7.2965141e+04 </wgt>
<wgt id='1289'> +7.3047905e+04 </wgt>
<wgt id='1290'> +7.3163826e+04 </wgt>
<wgt id='1291'> +7.3017627e+04 </wgt>
<wgt id='1292'> +7.3052687e+04 </wgt>
<wgt id='1293'> +7.3221629e+04 </wgt>
<wgt id='1294'> +7.3221565e+04 </wgt>
<wgt id='1295'> +7.3152568e+04 </wgt>
<wgt id='1296'> +7.3163477e+04 </wgt>
<wgt id='1297'> +7.3021825e+04 </wgt>
<wgt id='1298'> +7.3013004e+04 </wgt>
<wgt id='1299'> +7.2998050e+04 </wgt>
<wgt id='1300'> +7.3167647e+04 </wgt>
<wgt id='1301'> +7.3038317e+04 </wgt>
<wgt id='1302'> +7.3096720e+04 </wgt>
<wgt id='1303'> +7.3069190e+04 </wgt>
<wgt id='1304'> +7.3092997e+04 </wgt>
<wgt id='1305'> +7.3143146e+04 </wgt>
<wgt id='1306'> +7.3067691e+04 </wgt>
<wgt id='1307'> +7.3123115e+04 </wgt>
<wgt id='1308'> +7.3072040e+04 </wgt>
<wgt id='1309'> +7.3109199e+04 </wgt>
<wgt id='1310'> +7.3031575e+04 </wgt>
<wgt id='1311'> +7.3166940e+04 </wgt>
<wgt id='1312'> +7.3165502e+04 </wgt>
<wgt id='1313'> +7.3049180e+04 </wgt>
<wgt id='1314'> +7.3154908e+04 </wgt>
<wgt id='1315'> +7.3071398e+04 </wgt>
<wgt id='1316'> +7.3126423e+04 </wgt>
<wgt id='1317'> +7.3100230e+04 </wgt>
<wgt id='1318'> +7.3188412e+04 </wgt>
<wgt id='1319'> +7.3069343e+04 </wgt>
<wgt id='1320'> +7.3111452e+04 </wgt>
<wgt id='1321'> +7.3061498e+04 </wgt>
<wgt id='1322'> +7.3154128e+04 </wgt>
<wgt id='1323'> +7.3094756e+04 </wgt>
<wgt id='1324'> +7.3339233e+04 </wgt>
<wgt id='1325'> +7.3157099e+04 </wgt>
<wgt id='1326'> +7.2781033e+04 </wgt>
<wgt id='1327'> +7.1304686e+04 </wgt>
<wgt id='1328'> +7.2606685e+04 </wgt>
<wgt id='1329'> +7.2495208e+04 </wgt>
<wgt id='1330'> +7.3425434e+04 </wgt>
<wgt id='1331'> +7.2792306e+04 </wgt>
<wgt id='1332'> +7.2743557e+04 </wgt>
<wgt id='1333'> +7.5584090e+04 </wgt>
<wgt id='1334'> +7.0422626e+04 </wgt>
<wgt id='1335'> +7.0749832e+04 </wgt>
<wgt id='1336'> +7.3734089e+04 </wgt>
<wgt id='1337'> +7.2530255e+04 </wgt>
<wgt id='1338'> +7.1982212e+04 </wgt>
<wgt id='1339'> +7.1165018e+04 </wgt>
<wgt id='1340'> +7.2786328e+04 </wgt>
<wgt id='1341'> +7.0375109e+04 </wgt>
<wgt id='1342'> +7.5184338e+04 </wgt>
<wgt id='1343'> +7.2334189e+04 </wgt>
<wgt id='1344'> +7.1148364e+04 </wgt>
<wgt id='1345'> +7.4030123e+04 </wgt>
<wgt id='1346'> +7.1986179e+04 </wgt>
<wgt id='1347'> +7.5358959e+04 </wgt>
<wgt id='1348'> +7.3613420e+04 </wgt>
<wgt id='1349'> +7.2941276e+04 </wgt>
<wgt id='1350'> +7.0100516e+04 </wgt>
<wgt id='1351'> +7.3125236e+04 </wgt>
<wgt id='1352'> +7.0339061e+04 </wgt>
<wgt id='1353'> +7.2476401e+04 </wgt>
<wgt id='1354'> +7.1658743e+04 </wgt>
<wgt id='1355'> +7.2890698e+04 </wgt>
<wgt id='1356'> +7.4390615e+04 </wgt>
<wgt id='1357'> +7.1435122e+04 </wgt>
<wgt id='1358'> +7.0700026e+04 </wgt>
<wgt id='1359'> +7.3555762e+04 </wgt>
<wgt id='1360'> +7.3268373e+04 </wgt>
<wgt id='1361'> +7.4595974e+04 </wgt>
<wgt id='1362'> +7.3926642e+04 </wgt>
<wgt id='1363'> +7.1228166e+04 </wgt>
<wgt id='1364'> +7.4318418e+04 </wgt>
<wgt id='1365'> +7.1467445e+04 </wgt>
<wgt id='1366'> +7.3006280e+04 </wgt>
<wgt id='1367'> +7.3720607e+04 </wgt>
<wgt id='1368'> +7.0383318e+04 </wgt>
<wgt id='1369'> +7.5194210e+04 </wgt>
<wgt id='1370'> +7.0702011e+04 </wgt>
<wgt id='1371'> +7.1871115e+04 </wgt>
<wgt id='1372'> +7.1416842e+04 </wgt>
<wgt id='1373'> +7.1780622e+04 </wgt>
<wgt id='1374'> +7.2938124e+04 </wgt>
<wgt id='1375'> +7.2487025e+04 </wgt>
<wgt id='1376'> +7.2285288e+04 </wgt>
<wgt id='1377'> +7.1718056e+04 </wgt>
<wgt id='1378'> +7.0466998e+04 </wgt>
<wgt id='1379'> +7.3761278e+04 </wgt>
<wgt id='1380'> +7.0971677e+04 </wgt>
<wgt id='1381'> +7.3350430e+04 </wgt>
<wgt id='1382'> +7.1708631e+04 </wgt>
<wgt id='1383'> +6.9938822e+04 </wgt>
<wgt id='1384'> +7.3138015e+04 </wgt>
<wgt id='1385'> +6.9241217e+04 </wgt>
<wgt id='1386'> +7.3115114e+04 </wgt>
<wgt id='1387'> +7.3925227e+04 </wgt>
<wgt id='1388'> +7.5244959e+04 </wgt>
<wgt id='1389'> +7.1660152e+04 </wgt>
<wgt id='1390'> +6.9478079e+04 </wgt>
<wgt id='1391'> +7.2221459e+04 </wgt>
<wgt id='1392'> +7.1419464e+04 </wgt>
<wgt id='1393'> +7.2543327e+04 </wgt>
<wgt id='1394'> +7.1467445e+04 </wgt>
<wgt id='1395'> +7.2321124e+04 </wgt>
<wgt id='1396'> +7.2297567e+04 </wgt>
<wgt id='1397'> +7.3331432e+04 </wgt>
<wgt id='1398'> +7.3132898e+04 </wgt>
<wgt id='1399'> +7.2502960e+04 </wgt>
<wgt id='1400'> +7.2988343e+04 </wgt>
<wgt id='1401'> +7.1838504e+04 </wgt>
<wgt id='1402'> +7.2630822e+04 </wgt>
<wgt id='1403'> +7.2917081e+04 </wgt>
<wgt id='1404'> +7.3559845e+04 </wgt>
<wgt id='1405'> +7.2248621e+04 </wgt>
<wgt id='1406'> +7.1581406e+04 </wgt>
<wgt id='1407'> +7.2783144e+04 </wgt>
<wgt id='1408'> +7.6229260e+04 </wgt>
<wgt id='1409'> +7.2462711e+04 </wgt>
<wgt id='1410'> +7.4160844e+04 </wgt>
<wgt id='1411'> +7.3648303e+04 </wgt>
<wgt id='1412'> +7.2643479e+04 </wgt>
<wgt id='1413'> +7.3276138e+04 </wgt>
<wgt id='1414'> +7.1620672e+04 </wgt>
<wgt id='1415'> +7.0923282e+04 </wgt>
<wgt id='1416'> +7.4167965e+04 </wgt>
<wgt id='1417'> +7.2499839e+04 </wgt>
<wgt id='1418'> +7.3769473e+04 </wgt>
<wgt id='1419'> +7.2173917e+04 </wgt>
<wgt id='1420'> +7.2147072e+04 </wgt>
<wgt id='1421'> +7.2390414e+04 </wgt>
<wgt id='1422'> +7.3169680e+04 </wgt>
<wgt id='1423'> +7.2901618e+04 </wgt>
<wgt id='1424'> +7.3578032e+04 </wgt>
<wgt id='1425'> +7.4628164e+04 </wgt>
<wgt id='1426'> +7.2675842e+04 </wgt>
<wgt id='1427'> +7.3312086e+04 </wgt>
<wgt id='1428'> +7.6053961e+04 </wgt>
<wgt id='1429'> +7.3174724e+04 </wgt>
<wgt id='1430'> +7.2013856e+04 </wgt>
<wgt id='1431'> +7.2576579e+04 </wgt>
<wgt id='1432'> +7.3087734e+04 </wgt>
<wgt id='1433'> +7.2484668e+04 </wgt>
<wgt id='1434'> +7.2343900e+04 </wgt>
<wgt id='1435'> +7.2386155e+04 </wgt>
<wgt id='1436'> +7.2164233e+04 </wgt>
<wgt id='1437'> +7.2843537e+04 </wgt>
<wgt id='1438'> +7.2717201e+04 </wgt>
<wgt id='1439'> +7.2414945e+04 </wgt>
<wgt id='1440'> +7.2616373e+04 </wgt>
<wgt id='1441'> +7.2688250e+04 </wgt>
<wgt id='1442'> +7.2325821e+04 </wgt>
<wgt id='1443'> +7.2591861e+04 </wgt>
<wgt id='1444'> +7.2283859e+04 </wgt>
<wgt id='1445'> +7.2067456e+04 </wgt>
<wgt id='1446'> +7.2870049e+04 </wgt>
<wgt id='1447'> +7.2576357e+04 </wgt>
<wgt id='1448'> +7.2817274e+04 </wgt>
<wgt id='1449'> +7.2420113e+04 </wgt>
<wgt id='1450'> +7.2229047e+04 </wgt>
<wgt id='1451'> +7.2762548e+04 </wgt>
<wgt id='1452'> +7.3120525e+04 </wgt>
<wgt id='1453'> +7.2595473e+04 </wgt>
<wgt id='1454'> +7.2618264e+04 </wgt>
<wgt id='1455'> +7.2606153e+04 </wgt>
<wgt id='1456'> +7.2558791e+04 </wgt>
<wgt id='1457'> +7.2511462e+04 </wgt>
<wgt id='1458'> +7.2314495e+04 </wgt>
<wgt id='1459'> +7.2661919e+04 </wgt>
<wgt id='1460'> +7.2753694e+04 </wgt>
<wgt id='1461'> +7.2616839e+04 </wgt>
<wgt id='1462'> +7.2767805e+04 </wgt>
<wgt id='1463'> +7.2647209e+04 </wgt>
<wgt id='1464'> +7.2575475e+04 </wgt>
<wgt id='1465'> +7.2492958e+04 </wgt>
<wgt id='1466'> +7.2692123e+04 </wgt>
<wgt id='1467'> +7.2647304e+04 </wgt>
<wgt id='1468'> +7.2626143e+04 </wgt>
<wgt id='1469'> +7.2548141e+04 </wgt>
<wgt id='1470'> +7.2464058e+04 </wgt>
<wgt id='1471'> +7.2672763e+04 </wgt>
<wgt id='1472'> +7.2610816e+04 </wgt>
<wgt id='1473'> +7.2690518e+04 </wgt>
<wgt id='1474'> +7.2435577e+04 </wgt>
<wgt id='1475'> +7.2565714e+04 </wgt>
<wgt id='1476'> +7.2527427e+04 </wgt>
<wgt id='1477'> +7.2564030e+04 </wgt>
<wgt id='1478'> +7.2538720e+04 </wgt>
<wgt id='1479'> +7.2630945e+04 </wgt>
<wgt id='1480'> +7.2670185e+04 </wgt>
<wgt id='1481'> +7.2620468e+04 </wgt>
<wgt id='1482'> +7.3174724e+04 </wgt>
<wgt id='1483'> +7.2013856e+04 </wgt>
<wgt id='1484'> +7.6455420e+04 </wgt>
<wgt id='1485'> +7.4324793e+04 </wgt>
<wgt id='1486'> +7.6828373e+04 </wgt>
<wgt id='1487'> +7.4736616e+04 </wgt>
<wgt id='1488'> +7.5965850e+04 </wgt>
<wgt id='1489'> +7.5992506e+04 </wgt>
<wgt id='1490'> +7.4368453e+04 </wgt>
<wgt id='1491'> +7.5533333e+04 </wgt>
<wgt id='1492'> +7.3674195e+04 </wgt>
<wgt id='1493'> +7.7966719e+04 </wgt>
<wgt id='1494'> +7.6821212e+04 </wgt>
<wgt id='1495'> +7.2872621e+04 </wgt>
<wgt id='1496'> +7.4923872e+04 </wgt>
<wgt id='1497'> +7.4771693e+04 </wgt>
<wgt id='1498'> +7.8293477e+04 </wgt>
<wgt id='1499'> +7.6981243e+04 </wgt>
<wgt id='1500'> +7.6040052e+04 </wgt>
<wgt id='1501'> +7.6549246e+04 </wgt>
<wgt id='1502'> +7.6003544e+04 </wgt>
<wgt id='1503'> +7.6474512e+04 </wgt>
<wgt id='1504'> +7.7884742e+04 </wgt>
<wgt id='1505'> +7.6106214e+04 </wgt>
<wgt id='1506'> +7.5989755e+04 </wgt>
<wgt id='1507'> +7.5623338e+04 </wgt>
<wgt id='1508'> +7.4138568e+04 </wgt>
<wgt id='1509'> +7.6347760e+04 </wgt>
<wgt id='1510'> +7.8014132e+04 </wgt>
<wgt id='1511'> +7.7037992e+04 </wgt>
<wgt id='1512'> +7.6901387e+04 </wgt>
<wgt id='1513'> +7.6954003e+04 </wgt>
<wgt id='1514'> +7.5384199e+04 </wgt>
<wgt id='1515'> +7.6045560e+04 </wgt>
<wgt id='1516'> +7.5653282e+04 </wgt>
<wgt id='1517'> +7.6132844e+04 </wgt>
<wgt id='1518'> +7.6145135e+04 </wgt>
<wgt id='1519'> +7.6503633e+04 </wgt>
<wgt id='1520'> +7.7365452e+04 </wgt>
<wgt id='1521'> +7.5906996e+04 </wgt>
<wgt id='1522'> +7.7719809e+04 </wgt>
<wgt id='1523'> +7.8387395e+04 </wgt>
<wgt id='1524'> +7.7438010e+04 </wgt>
<wgt id='1525'> +7.7411932e+04 </wgt>
<wgt id='1526'> +7.6426172e+04 </wgt>
<wgt id='1527'> +7.7958709e+04 </wgt>
<wgt id='1528'> +7.7093878e+04 </wgt>
<wgt id='1529'> +7.6286670e+04 </wgt>
<wgt id='1530'> +7.7252422e+04 </wgt>
<wgt id='1531'> +7.5875999e+04 </wgt>
<wgt id='1532'> +7.6681128e+04 </wgt>
<wgt id='1533'> +7.7682242e+04 </wgt>
<wgt id='1534'> +7.5433107e+04 </wgt>
<wgt id='1535'> +7.7923391e+04 </wgt>
<wgt id='1536'> +7.6408409e+04 </wgt>
<wgt id='1537'> +7.5952810e+04 </wgt>
<wgt id='1538'> +7.6899929e+04 </wgt>
<wgt id='1539'> +7.7173987e+04 </wgt>
<wgt id='1540'> +7.7312633e+04 </wgt>
<wgt id='1541'> +7.6403218e+04 </wgt>
<wgt id='1542'> +7.6872926e+04 </wgt>
<wgt id='1543'> +7.6613785e+04 </wgt>
<wgt id='1544'> +7.7425977e+04 </wgt>
<wgt id='1545'> +7.7366746e+04 </wgt>
<wgt id='1546'> +7.6444627e+04 </wgt>
<wgt id='1547'> +7.7373482e+04 </wgt>
<wgt id='1548'> +7.6183470e+04 </wgt>
<wgt id='1549'> +7.6753367e+04 </wgt>
<wgt id='1550'> +7.6241064e+04 </wgt>
<wgt id='1551'> +7.9269985e+04 </wgt>
<wgt id='1552'> +7.6630692e+04 </wgt>
<wgt id='1553'> +7.9111342e+04 </wgt>
<wgt id='1554'> +7.7985195e+04 </wgt>
<wgt id='1555'> +7.5759030e+04 </wgt>
<wgt id='1556'> +7.5504971e+04 </wgt>
<wgt id='1557'> +7.6341434e+04 </wgt>
<wgt id='1558'> +7.6590952e+04 </wgt>
<wgt id='1559'> +7.7735858e+04 </wgt>
<wgt id='1560'> +7.7307996e+04 </wgt>
<wgt id='1561'> +7.6136338e+04 </wgt>
<wgt id='1562'> +7.7076320e+04 </wgt>
<wgt id='1563'> +7.4624994e+04 </wgt>
<wgt id='1564'> +7.6616632e+04 </wgt>
<wgt id='1565'> +7.5496334e+04 </wgt>
<wgt id='1566'> +7.6549034e+04 </wgt>
<wgt id='1567'> +7.7490309e+04 </wgt>
<wgt id='1568'> +7.6202781e+04 </wgt>
<wgt id='1569'> +7.6424412e+04 </wgt>
<wgt id='1570'> +7.8315083e+04 </wgt>
<wgt id='1571'> +7.4973375e+04 </wgt>
<wgt id='1572'> +7.5023418e+04 </wgt>
<wgt id='1573'> +7.5776287e+04 </wgt>
<wgt id='1574'> +7.5273213e+04 </wgt>
<wgt id='1575'> +7.4767044e+04 </wgt>
<wgt id='1576'> +7.8017866e+04 </wgt>
<wgt id='1577'> +7.4185883e+04 </wgt>
<wgt id='1578'> +7.7064517e+04 </wgt>
<wgt id='1579'> +7.6650181e+04 </wgt>
<wgt id='1580'> +7.8297341e+04 </wgt>
<wgt id='1581'> +7.7149815e+04 </wgt>
<wgt id='1582'> +7.5329770e+04 </wgt>
<wgt id='1583'> +7.6242007e+04 </wgt>
<wgt id='1584'> +7.5264812e+04 </wgt>
<wgt id='1585'> +7.5040384e+04 </wgt>
<wgt id='1586'> +6.3675199e+04 </wgt>
<wgt id='1587'> +7.3696840e+04 </wgt>
<wgt id='1588'> +7.3174724e+04 </wgt>
<wgt id='1589'> +7.2860450e+04 </wgt>
<wgt id='1590'> +7.2034105e+04 </wgt>
<wgt id='1591'> +7.2013856e+04 </wgt>
<wgt id='1592'> +7.1473410e+04 </wgt>
<wgt id='1593'> +7.5508300e+04 </wgt>
<wgt id='1594'> +7.5394901e+04 </wgt>
<wgt id='1595'> +7.4129296e+04 </wgt>
<wgt id='1596'> +7.4910246e+04 </wgt>
<wgt id='1597'> +7.5251113e+04 </wgt>
<wgt id='1598'> +7.4260420e+04 </wgt>
<wgt id='1599'> +7.6230729e+04 </wgt>
<wgt id='1600'> +7.4960478e+04 </wgt>
<wgt id='1601'> +7.6036411e+04 </wgt>
<wgt id='1602'> +7.5022540e+04 </wgt>
<wgt id='1603'> +7.5998772e+04 </wgt>
<wgt id='1604'> +7.5901108e+04 </wgt>
<wgt id='1605'> +7.4109526e+04 </wgt>
<wgt id='1606'> +7.5116596e+04 </wgt>
<wgt id='1607'> +7.6529335e+04 </wgt>
<wgt id='1608'> +7.5699249e+04 </wgt>
<wgt id='1609'> +7.5091011e+04 </wgt>
<wgt id='1610'> +7.6080273e+04 </wgt>
<wgt id='1611'> +7.4760312e+04 </wgt>
<wgt id='1612'> +7.6058360e+04 </wgt>
<wgt id='1613'> +7.4848960e+04 </wgt>
<wgt id='1614'> +7.5529384e+04 </wgt>
<wgt id='1615'> +7.5452393e+04 </wgt>
<wgt id='1616'> +7.5056936e+04 </wgt>
<wgt id='1617'> +7.5857650e+04 </wgt>
<wgt id='1618'> +7.5683157e+04 </wgt>
<wgt id='1619'> +7.4876909e+04 </wgt>
<wgt id='1620'> +7.6109664e+04 </wgt>
<wgt id='1621'> +7.5163189e+04 </wgt>
<wgt id='1622'> +7.6588946e+04 </wgt>
<wgt id='1623'> +7.5517684e+04 </wgt>
<wgt id='1624'> +7.5335904e+04 </wgt>
<wgt id='1625'> +7.5307699e+04 </wgt>
<wgt id='1626'> +7.5151128e+04 </wgt>
<wgt id='1627'> +7.6436484e+04 </wgt>
<wgt id='1628'> +7.5862064e+04 </wgt>
<wgt id='1629'> +7.5704986e+04 </wgt>
<wgt id='1630'> +7.4655448e+04 </wgt>
<wgt id='1631'> +7.5716997e+04 </wgt>
<wgt id='1632'> +7.4313417e+04 </wgt>
<wgt id='1633'> +7.6685232e+04 </wgt>
<wgt id='1634'> +7.6096403e+04 </wgt>
<wgt id='1635'> +7.5407526e+04 </wgt>
<wgt id='1636'> +7.5724785e+04 </wgt>
<wgt id='1637'> +7.6509276e+04 </wgt>
<wgt id='1638'> +7.5125525e+04 </wgt>
<wgt id='1639'> +7.5604609e+04 </wgt>
<wgt id='1640'> +7.6263095e+04 </wgt>
<wgt id='1641'> +7.5416487e+04 </wgt>
<wgt id='1642'> +7.6599278e+04 </wgt>
<wgt id='1643'> +7.4985279e+04 </wgt>
<wgt id='1644'> +7.7047400e+04 </wgt>
<wgt id='1645'> +7.3878789e+04 </wgt>
<wgt id='1646'> +7.4577315e+04 </wgt>
<wgt id='1647'> +7.7127317e+04 </wgt>
<wgt id='1648'> +7.6244382e+04 </wgt>
<wgt id='1649'> +7.6385207e+04 </wgt>
<wgt id='1650'> +7.7131046e+04 </wgt>
<wgt id='1651'> +7.3843139e+04 </wgt>
<wgt id='1652'> +7.5390899e+04 </wgt>
<wgt id='1653'> +7.5451204e+04 </wgt>
<wgt id='1654'> +7.5571519e+04 </wgt>
<wgt id='1655'> +7.5634529e+04 </wgt>
<wgt id='1656'> +7.7415263e+04 </wgt>
<wgt id='1657'> +7.6472061e+04 </wgt>
<wgt id='1658'> +7.7669438e+04 </wgt>
<wgt id='1659'> +7.8380430e+04 </wgt>
<wgt id='1660'> +7.6654741e+04 </wgt>
<wgt id='1661'> +7.8238477e+04 </wgt>
<wgt id='1662'> +7.6330998e+04 </wgt>
<wgt id='1663'> +7.8895542e+04 </wgt>
<wgt id='1664'> +7.7457090e+04 </wgt>
<wgt id='1665'> +7.7870284e+04 </wgt>
<wgt id='1666'> +7.7441212e+04 </wgt>
<wgt id='1667'> +7.7984803e+04 </wgt>
<wgt id='1668'> +7.6935219e+04 </wgt>
<wgt id='1669'> +7.7570042e+04 </wgt>
<wgt id='1670'> +7.7538288e+04 </wgt>
<wgt id='1671'> +7.7667865e+04 </wgt>
<wgt id='1672'> +7.6114251e+04 </wgt>
<wgt id='1673'> +7.7430326e+04 </wgt>
<wgt id='1674'> +7.7263862e+04 </wgt>
<wgt id='1675'> +7.8347810e+04 </wgt>
<wgt id='1676'> +7.7179317e+04 </wgt>
<wgt id='1677'> +7.6271546e+04 </wgt>
<wgt id='1678'> +7.7621167e+04 </wgt>
<wgt id='1679'> +7.7503670e+04 </wgt>
<wgt id='1680'> +7.8068313e+04 </wgt>
<wgt id='1681'> +7.7939310e+04 </wgt>
<wgt id='1682'> +7.6710742e+04 </wgt>
<wgt id='1683'> +7.7014730e+04 </wgt>
<wgt id='1684'> +7.7803634e+04 </wgt>
<wgt id='1685'> +7.8519066e+04 </wgt>
<wgt id='1686'> +7.7078296e+04 </wgt>
<wgt id='1687'> +7.7679352e+04 </wgt>
<wgt id='1688'> +7.6755775e+04 </wgt>
<wgt id='1689'> +7.7127177e+04 </wgt>
<wgt id='1690'> +7.8168736e+04 </wgt>
<wgt id='1691'> +7.7660484e+04 </wgt>
<wgt id='1692'> +7.7690724e+04 </wgt>
<wgt id='1693'> +7.7545214e+04 </wgt>
<wgt id='1694'> +7.7668669e+04 </wgt>
<wgt id='1695'> +7.6935688e+04 </wgt>
<wgt id='1696'> +7.8793228e+04 </wgt>
<wgt id='1697'> +7.8189393e+04 </wgt>
<wgt id='1698'> +7.6978917e+04 </wgt>
<wgt id='1699'> +7.6841508e+04 </wgt>
<wgt id='1700'> +7.8130880e+04 </wgt>
<wgt id='1701'> +7.7124312e+04 </wgt>
<wgt id='1702'> +7.8002247e+04 </wgt>
<wgt id='1703'> +7.7133132e+04 </wgt>
<wgt id='1704'> +7.7716279e+04 </wgt>
<wgt id='1705'> +7.6964238e+04 </wgt>
<wgt id='1706'> +7.8362879e+04 </wgt>
<wgt id='1707'> +7.6343026e+04 </wgt>
<wgt id='1708'> +7.7921337e+04 </wgt>
<wgt id='1709'> +7.6857191e+04 </wgt>
<wgt id='1710'> +7.8511123e+04 </wgt>
<wgt id='1711'> +7.6724138e+04 </wgt>
<wgt id='1712'> +7.8389440e+04 </wgt>
<wgt id='1713'> +7.8960364e+04 </wgt>
<wgt id='1714'> +7.5685158e+04 </wgt>
<wgt id='1715'> +7.4849313e+04 </wgt>
<wgt id='1716'> +7.6575080e+04 </wgt>
<wgt id='1717'> +7.4199897e+04 </wgt>
<wgt id='1718'> +7.4390966e+04 </wgt>
<wgt id='1719'> +7.3954851e+04 </wgt>
<wgt id='1720'> +7.4256874e+04 </wgt>
<wgt id='1721'> +7.4147839e+04 </wgt>
<wgt id='1722'> +7.4192674e+04 </wgt>
<wgt id='1723'> +7.4211646e+04 </wgt>
<wgt id='1724'> +7.4371109e+04 </wgt>
<wgt id='1725'> +7.4060454e+04 </wgt>
<wgt id='1726'> +7.4049869e+04 </wgt>
<wgt id='1727'> +7.4354615e+04 </wgt>
<wgt id='1728'> +7.3616952e+04 </wgt>
<wgt id='1729'> +7.4767605e+04 </wgt>
<wgt id='1730'> +7.3884763e+04 </wgt>
<wgt id='1731'> +7.4423962e+04 </wgt>
<wgt id='1732'> +7.4440140e+04 </wgt>
<wgt id='1733'> +7.4440140e+04 </wgt>
<wgt id='1734'> +7.3645242e+04 </wgt>
<wgt id='1735'> +7.4573323e+04 </wgt>
<wgt id='1736'> +7.3976964e+04 </wgt>
<wgt id='1737'> +7.4505862e+04 </wgt>
<wgt id='1738'> +7.4591719e+04 </wgt>
<wgt id='1739'> +7.3498885e+04 </wgt>
<wgt id='1740'> +7.4431832e+04 </wgt>
<wgt id='1741'> +7.3636983e+04 </wgt>
<wgt id='1742'> +7.4254793e+04 </wgt>
<wgt id='1743'> +7.4131995e+04 </wgt>
<wgt id='1744'> +7.4152421e+04 </wgt>
<wgt id='1745'> +7.4326376e+04 </wgt>
<wgt id='1746'> +7.3952354e+04 </wgt>
<wgt id='1747'> +7.4309464e+04 </wgt>
<wgt id='1748'> +7.4636461e+04 </wgt>
<wgt id='1749'> +7.2791742e+04 </wgt>
<wgt id='1750'> +7.4609865e+04 </wgt>
<wgt id='1751'> +7.3761001e+04 </wgt>
<wgt id='1752'> +7.4093960e+04 </wgt>
<wgt id='1753'> +7.4345330e+04 </wgt>
<wgt id='1754'> +7.4456826e+04 </wgt>
<wgt id='1755'> +7.4060676e+04 </wgt>
<wgt id='1756'> +7.4024070e+04 </wgt>
<wgt id='1757'> +7.4627394e+04 </wgt>
<wgt id='1758'> +7.3778662e+04 </wgt>
<wgt id='1759'> +7.4314291e+04 </wgt>
<wgt id='1760'> +7.4578018e+04 </wgt>
<wgt id='1761'> +7.3803597e+04 </wgt>
<wgt id='1762'> +7.4023999e+04 </wgt>
<wgt id='1763'> +7.4864935e+04 </wgt>
<wgt id='1764'> +7.4109111e+04 </wgt>
<wgt id='1765'> +7.4575859e+04 </wgt>
<wgt id='1766'> +7.4065807e+04 </wgt>
<wgt id='1767'> +7.4263085e+04 </wgt>
<wgt id='1768'> +7.4244028e+04 </wgt>
<wgt id='1769'> +7.4186296e+04 </wgt>
<wgt id='1770'> +7.4051145e+04 </wgt>
<wgt id='1771'> +7.4521348e+04 </wgt>
<wgt id='1772'> +7.4302370e+04 </wgt>
<wgt id='1773'> +7.4106178e+04 </wgt>
<wgt id='1774'> +7.3187749e+04 </wgt>
<wgt id='1775'> +7.4800478e+04 </wgt>
<wgt id='1776'> +7.4245931e+04 </wgt>
<wgt id='1777'> +7.4138399e+04 </wgt>
<wgt id='1778'> +7.4017980e+04 </wgt>
<wgt id='1779'> +7.4515176e+04 </wgt>
<wgt id='1780'> +7.4610741e+04 </wgt>
<wgt id='1781'> +7.4361524e+04 </wgt>
<wgt id='1782'> +7.4199897e+04 </wgt>
<wgt id='1783'> +7.4219628e+04 </wgt>
<wgt id='1784'> +7.4051955e+04 </wgt>
<wgt id='1785'> +7.3544529e+04 </wgt>
<wgt id='1786'> +7.3331233e+04 </wgt>
<wgt id='1787'> +7.3854705e+04 </wgt>
<wgt id='1788'> +7.3703852e+04 </wgt>
<wgt id='1789'> +7.4036446e+04 </wgt>
<wgt id='1790'> +7.3348576e+04 </wgt>
<wgt id='1791'> +7.3909615e+04 </wgt>
<wgt id='1792'> +7.4060677e+04 </wgt>
<wgt id='1793'> +7.4131860e+04 </wgt>
<wgt id='1794'> +7.4428384e+04 </wgt>
<wgt id='1795'> +7.3628373e+04 </wgt>
<wgt id='1796'> +7.4039074e+04 </wgt>
<wgt id='1797'> +7.4012963e+04 </wgt>
<wgt id='1798'> +7.3837988e+04 </wgt>
<wgt id='1799'> +7.4602062e+04 </wgt>
<wgt id='1800'> +7.4511096e+04 </wgt>
<wgt id='1801'> +7.4555824e+04 </wgt>
<wgt id='1802'> +7.3962237e+04 </wgt>
<wgt id='1803'> +7.4132086e+04 </wgt>
<wgt id='1804'> +7.3095719e+04 </wgt>
<wgt id='1805'> +7.3819711e+04 </wgt>
<wgt id='1806'> +7.3721140e+04 </wgt>
<wgt id='1807'> +7.3988830e+04 </wgt>
<wgt id='1808'> +7.4228587e+04 </wgt>
<wgt id='1809'> +7.3543442e+04 </wgt>
<wgt id='1810'> +7.4089810e+04 </wgt>
<wgt id='1811'> +7.2733386e+04 </wgt>
<wgt id='1812'> +7.3959665e+04 </wgt>
<wgt id='1813'> +7.3861139e+04 </wgt>
<wgt id='1814'> +7.3939995e+04 </wgt>
<wgt id='1815'> +7.3996334e+04 </wgt>
<wgt id='1816'> +7.3931054e+04 </wgt>
<wgt id='1817'> +7.3870591e+04 </wgt>
<wgt id='1818'> +7.3984728e+04 </wgt>
<wgt id='1819'> +7.4418627e+04 </wgt>
<wgt id='1820'> +7.3965290e+04 </wgt>
<wgt id='1821'> +7.4042809e+04 </wgt>
<wgt id='1822'> +7.4026741e+04 </wgt>
<wgt id='1823'> +7.3912403e+04 </wgt>
<wgt id='1824'> +7.4170939e+04 </wgt>
<wgt id='1825'> +7.4524549e+04 </wgt>
<wgt id='1826'> +7.4131497e+04 </wgt>
<wgt id='1827'> +8.3630991e+04 </wgt>
<wgt id='1828'> +8.3766031e+04 </wgt>
<wgt id='1829'> +8.3519764e+04 </wgt>
<wgt id='1830'> +8.3834930e+04 </wgt>
<wgt id='1831'> +8.3449512e+04 </wgt>
<wgt id='1832'> +8.3687761e+04 </wgt>
<wgt id='1833'> +8.3597443e+04 </wgt>
<wgt id='1834'> +8.3309914e+04 </wgt>
<wgt id='1835'> +8.3956566e+04 </wgt>
<wgt id='1836'> +8.3388242e+04 </wgt>
<wgt id='1837'> +8.3873560e+04 </wgt>
<wgt id='1838'> +8.2004418e+04 </wgt>
<wgt id='1839'> +8.5259282e+04 </wgt>
<wgt id='1840'> +8.4018568e+04 </wgt>
<wgt id='1841'> +8.3280378e+04 </wgt>
<wgt id='1842'> +8.3782569e+04 </wgt>
<wgt id='1843'> +8.3989971e+04 </wgt>
<wgt id='1844'> +8.3572203e+04 </wgt>
<wgt id='1845'> +8.3683245e+04 </wgt>
<wgt id='1846'> +8.2273619e+04 </wgt>
<wgt id='1847'> +8.4913006e+04 </wgt>
<wgt id='1848'> +8.3537052e+04 </wgt>
<wgt id='1849'> +8.3637617e+04 </wgt>
<wgt id='1850'> +8.4495952e+04 </wgt>
<wgt id='1851'> +8.2835673e+04 </wgt>
<wgt id='1852'> +8.3287517e+04 </wgt>
<wgt id='1853'> +8.4131268e+04 </wgt>
<wgt id='1854'> +8.2667252e+04 </wgt>
<wgt id='1855'> +8.4799408e+04 </wgt>
<wgt id='1856'> +7.4534302e+04 </wgt>
<wgt id='1857'> +7.4529645e+04 </wgt>
<wgt id='1858'> +7.4426561e+04 </wgt>
<wgt id='1859'> +7.4522913e+04 </wgt>
<wgt id='1860'> +7.4532720e+04 </wgt>
<wgt id='1861'> +7.4444763e+04 </wgt>
<wgt id='1862'> +7.4290832e+04 </wgt>
<wgt id='1863'> +7.4503976e+04 </wgt>
<wgt id='1864'> +7.4506309e+04 </wgt>
<wgt id='1865'> +7.4109429e+04 </wgt>
<wgt id='1866'> +7.4635173e+04 </wgt>
<wgt id='1867'> +7.4554368e+04 </wgt>
<wgt id='1868'> +7.4719209e+04 </wgt>
<wgt id='1869'> +7.4645740e+04 </wgt>
<wgt id='1870'> +7.4208443e+04 </wgt>
<wgt id='1871'> +7.4487357e+04 </wgt>
<wgt id='1872'> +7.4260238e+04 </wgt>
<wgt id='1873'> +7.4476259e+04 </wgt>
<wgt id='1874'> +7.4240863e+04 </wgt>
<wgt id='1875'> +7.4662570e+04 </wgt>
<wgt id='1876'> +7.4370201e+04 </wgt>
<wgt id='1877'> +7.4086815e+04 </wgt>
<wgt id='1878'> +7.4541234e+04 </wgt>
<wgt id='1879'> +7.4732830e+04 </wgt>
<wgt id='1880'> +7.4837732e+04 </wgt>
<wgt id='1881'> +7.4445661e+04 </wgt>
<wgt id='1882'> +7.4695727e+04 </wgt>
<wgt id='1883'> +7.4897772e+04 </wgt>
<wgt id='1884'> +7.3802328e+04 </wgt>
<wgt id='1885'> +7.3816572e+04 </wgt>
<wgt id='1886'> +7.2058186e+04 </wgt>
<wgt id='1887'> +7.0059507e+04 </wgt>
<wgt id='1888'> +6.7068117e+04 </wgt>
<wgt id='1889'> +7.1634565e+04 </wgt>
</rwgt>
</event>
<event npLO=" -1 " npNLO=" 0 ">
 6      0 +7.4519530e+04 3.00000000e+01 7.55820760e-03 1.19716610e-01
        2 -1    0    0  501    0 +0.0000000000e+00 +0.0000000000e+00 +3.0190742344e+01 3.0190742344e+01 0.0000000000e+00 0.0000e+00 -1.0000e+00
       21 -1    0    0  502  501 +0.0000000000e+00 +0.0000000000e+00 -1.3033325696e+02 1.3033325696e+02 0.0000000000e+00 0.0000e+00 -1.0000e+00
       24  2    1    2    0    0 -2.0255085982e+01 -2.7850661449e+01 -4.2063889584e+01 9.3003228153e+01 7.5460597591e+01 0.0000e+00 0.0000e+00
      -15  1    3    3    0    0 -1.1178772726e+01 +1.5102640506e+01 +1.2749186111e+01 2.2776175829e+01 1.7770000000e+00 0.0000e+00 1.0000e+00
       16  1    3    3    0    0 -9.0763132561e+00 -4.2953301954e+01 -5.4813075694e+01 7.0227052324e+01 0.0000000000e+00 0.0000e+00 -1.0000e+00
        1  1    1    2  502    0 +2.0255085982e+01 +2.7850661449e+01 -5.8078625034e+01 6.7520771153e+01 0.0000000000e+00 0.0000e+00 -1.0000e+00
#aMCatNLO 2  0  0  2  2 0.39633391E+02 0.00000000E+00 -9  5  0 0.00000000E+00 0.00000000E+00 0.00000000E+00 0.00000000E+00 0.00000000E+00
<rwgt>
<wgt id='1001'> +7.4519530e+04 </wgt>
<wgt id='1002'> +6.7372993e+04 </wgt>
<wgt id='1003'> +8.3414225e+04 </wgt>
<wgt id='1004'> +7.9074379e+04 </wgt>
<wgt id='1005'> +7.1491024e+04 </wgt>
<wgt id='1006'> +8.8512742e+04 </wgt>
<wgt id='1007'> +6.8784243e+04 </wgt>
<wgt id='1008'> +6.2187727e+04 </wgt>
<wgt id='1009'> +7.6994369e+04 </wgt>
<wgt id='1010'> +7.4519530e+04 </wgt>
<wgt id='1011'> +7.4512209e+04 </wgt>
<wgt id='1012'> +7.4368343e+04 </wgt>
<wgt id='1013'> +7.4385014e+04 </wgt>
<wgt id='1014'> +7.4845760e+04 </wgt>
<wgt id='1015'> +7.4449308e+04 </wgt>
<wgt id='1016'> +7.4636564e+04 </wgt>
<wgt id='1017'> +7.4941015e+04 </wgt>
<wgt id='1018'> +7.4833896e+04 </wgt>
<wgt id='1019'> +7.4644541e+04 </wgt>
<wgt id='1020'> +7.4366362e+04 </wgt>
<wgt id='1021'> +7.4110335e+04 </wgt>
<wgt id='1022'> +7.4810908e+04 </wgt>
<wgt id='1023'> +7.4605955e+04 </wgt>
<wgt id='1024'> +7.4616233e+04 </wgt>
<wgt id='1025'> +7.4772641e+04 </wgt>
<wgt id='1026'> +7.4326770e+04 </wgt>
<wgt id='1027'> +7.4330466e+04 </wgt>
<wgt id='1028'> +7.4406724e+04 </wgt>
<wgt id='1029'> +7.4721098e+04 </wgt>
<wgt id='1030'> +7.4243627e+04 </wgt>
<wgt id='1031'> +7.4668484e+04 </wgt>
<wgt id='1032'> +7.4671812e+04 </wgt>
<wgt id='1033'> +7.4432904e+04 </wgt>
<wgt id='1034'> +7.4253730e+04 </wgt>
<wgt id='1035'> +7.4405009e+04 </wgt>
<wgt id='1036'> +7.4357530e+04 </wgt>
<wgt id='1037'> +7.4784494e+04 </wgt>
<wgt id='1038'> +7.4564334e+04 </wgt>
<wgt id='1039'> +7.4420435e+04 </wgt>
<wgt id='1040'> +7.4705176e+04 </wgt>
<wgt id='1041'> +7.4438766e+04 </wgt>
<wgt id='1042'> +7.4401944e+04 </wgt>
<wgt id='1043'> +7.4517643e+04 </wgt>
<wgt id='1044'> +7.4457548e+04 </wgt>
<wgt id='1045'> +7.4529382e+04 </wgt>
<wgt id='1046'> +7.4776991e+04 </wgt>
<wgt id='1047'> +7.4418459e+04 </wgt>
<wgt id='1048'> +7.4668703e+04 </wgt>
<wgt id='1049'> +7.4613542e+04 </wgt>
<wgt id='1050'> +7.4590495e+04 </wgt>
<wgt id='1051'> +7.4676518e+04 </wgt>
<wgt id='1052'> +7.4634407e+04 </wgt>
<wgt id='1053'> +7.4400183e+04 </wgt>
<wgt id='1054'> +7.4536369e+04 </wgt>
<wgt id='1055'> +7.4594234e+04 </wgt>
<wgt id='1056'> +7.4585101e+04 </wgt>
<wgt id='1057'> +7.4442243e+04 </wgt>
<wgt id='1058'> +7.4511867e+04 </wgt>
<wgt id='1059'> +7.4494161e+04 </wgt>
<wgt id='1060'> +7.4506231e+04 </wgt>
<wgt id='1061'> +7.4515675e+04 </wgt>
<wgt id='1062'> +7.4406397e+04 </wgt>
<wgt id='1063'> +7.4522916e+04 </wgt>
<wgt id='1064'> +7.4562727e+04 </wgt>
<wgt id='1065'> +7.4575148e+04 </wgt>
<wgt id='1066'> +7.4531719e+04 </wgt>
<wgt id='1067'> +7.4498110e+04 </wgt>
<wgt id='1068'> +7.4357202e+04 </wgt>
<wgt id='1069'> +7.4627747e+04 </wgt>
<wgt id='1070'> +7.4564759e+04 </wgt>
<wgt id='1071'> +7.4549639e+04 </wgt>
<wgt id='1072'> +7.4582122e+04 </wgt>
<wgt id='1073'> +7.4521148e+04 </wgt>
<wgt id='1074'> +7.4494391e+04 </wgt>
<wgt id='1075'> +7.4564171e+04 </wgt>
<wgt id='1076'> +7.4476834e+04 </wgt>
<wgt id='1077'> +7.4580271e+04 </wgt>
<wgt id='1078'> +7.4526692e+04 </wgt>
<wgt id='1079'> +7.4531304e+04 </wgt>
<wgt id='1080'> +7.4544327e+04 </wgt>
<wgt id='1081'> +7.4533185e+04 </wgt>
<wgt id='1082'> +7.4484475e+04 </wgt>
<wgt id='1083'> +7.4567453e+04 </wgt>
<wgt id='1084'> +7.4544874e+04 </wgt>
<wgt id='1085'> +7.4517393e+04 </wgt>
<wgt id='1086'> +7.4553078e+04 </wgt>
<wgt id='1087'> +7.4523498e+04 </wgt>
<wgt id='1088'> +7.4530194e+04 </wgt>
<wgt id='1089'> +7.4519853e+04 </wgt>
<wgt id='1090'> +7.4526353e+04 </wgt>
<wgt id='1091'> +7.4521372e+04 </wgt>
<wgt id='1092'> +7.4525911e+04 </wgt>
<wgt id='1093'> +7.4538433e+04 </wgt>
<wgt id='1094'> +7.4529943e+04 </wgt>
<wgt id='1095'> +7.4526751e+04 </wgt>
<wgt id='1096'> +7.4514269e+04 </wgt>
<wgt id='1097'> +7.4519387e+04 </wgt>
<wgt id='1098'> +7.4520745e+04 </wgt>
<wgt id='1099'> +7.4497737e+04 </wgt>
<wgt id='1100'> +7.4521002e+04 </wgt>
<wgt id='1101'> +7.4514575e+04 </wgt>
<wgt id='1102'> +7.4516759e+04 </wgt>
<wgt id='1103'> +7.4489682e+04 </wgt>
<wgt id='1104'> +7.4515981e+04 </wgt>
<wgt id='1105'> +7.4529145e+04 </wgt>
<wgt id='1106'> +7.4523341e+04 </wgt>
<wgt id='1107'> +7.4529941e+04 </wgt>
<wgt id='1108'> +7.4498911e+04 </wgt>
<wgt id='1109'> +7.4510579e+04 </wgt>
<wgt id='1110'> +7.4519532e+04 </wgt>
<wgt id='1111'> +7.3447318e+04 </wgt>
<wgt id='1112'> +7.5408973e+04 </wgt>
<wgt id='1113'> +7.4519532e+04 </wgt>
<wgt id='1114'> +7.5324468e+04 </wgt>
<wgt id='1115'> +7.3395694e+04 </wgt>
<wgt id='1116'> +7.4862427e+04 </wgt>
<wgt id='1117'> +7.4245736e+04 </wgt>
<wgt id='1118'> +7.5084440e+04 </wgt>
<wgt id='1119'> +7.5429914e+04 </wgt>
<wgt id='1120'> +7.3518157e+04 </wgt>
<wgt id='1121'> +7.2840806e+04 </wgt>
<wgt id='1122'> +7.3880748e+04 </wgt>
<wgt id='1123'> +7.5629795e+04 </wgt>
<wgt id='1124'> +7.5990402e+04 </wgt>
<wgt id='1125'> +7.2451195e+04 </wgt>
<wgt id='1126'> +7.3981830e+04 </wgt>
<wgt id='1127'> +7.4536352e+04 </wgt>
<wgt id='1128'> +7.5840299e+04 </wgt>
<wgt id='1129'> +7.5440480e+04 </wgt>
<wgt id='1130'> +7.6314472e+04 </wgt>
<wgt id='1131'> +7.3827101e+04 </wgt>
<wgt id='1132'> +7.3960031e+04 </wgt>
<wgt id='1133'> +7.3967410e+04 </wgt>
<wgt id='1134'> +7.2216422e+04 </wgt>
<wgt id='1135'> +7.4565507e+04 </wgt>
<wgt id='1136'> +7.4271287e+04 </wgt>
<wgt id='1137'> +7.2783693e+04 </wgt>
<wgt id='1138'> +7.1818772e+04 </wgt>
<wgt id='1139'> +7.5191378e+04 </wgt>
<wgt id='1140'> +7.5689500e+04 </wgt>
<wgt id='1141'> +7.3093995e+04 </wgt>
<wgt id='1142'> +7.5480414e+04 </wgt>
<wgt id='1143'> +7.6069006e+04 </wgt>
<wgt id='1144'> +7.5574112e+04 </wgt>
<wgt id='1145'> +7.3903303e+04 </wgt>
<wgt id='1146'> +7.4004567e+04 </wgt>
<wgt id='1147'> +7.2562417e+04 </wgt>
<wgt id='1148'> +7.7136193e+04 </wgt>
<wgt id='1149'> +7.3367178e+04 </wgt>
<wgt id='1150'> +7.4263875e+04 </wgt>
<wgt id='1151'> +7.3875803e+04 </wgt>
<wgt id='1152'> +7.5214499e+04 </wgt>
<wgt id='1153'> +7.4420955e+04 </wgt>
<wgt id='1154'> +7.5373101e+04 </wgt>
<wgt id='1155'> +7.3336889e+04 </wgt>
<wgt id='1156'> +7.5501662e+04 </wgt>
<wgt id='1157'> +7.4666956e+04 </wgt>
<wgt id='1158'> +7.5026788e+04 </wgt>
<wgt id='1159'> +7.5382839e+04 </wgt>
<wgt id='1160'> +7.2749278e+04 </wgt>
<wgt id='1161'> +7.3509517e+04 </wgt>
<wgt id='1162'> +7.6147720e+04 </wgt>
<wgt id='1163'> +7.5872149e+04 </wgt>
<wgt id='1164'> +7.4544624e+04 </wgt>
<wgt id='1165'> +7.2602368e+04 </wgt>
<wgt id='1166'> +7.5168491e+04 </wgt>
<wgt id='1167'> +7.4374107e+04 </wgt>
<wgt id='1168'> +7.3817147e+04 </wgt>
<wgt id='1169'> +7.4402908e+04 </wgt>
<wgt id='1170'> +7.4766720e+04 </wgt>
<wgt id='1171'> +7.2612433e+04 </wgt>
<wgt id='1172'> +7.6561061e+04 </wgt>
<wgt id='1173'> +7.5114799e+04 </wgt>
<wgt id='1174'> +7.4927896e+04 </wgt>
<wgt id='1175'> +7.3738939e+04 </wgt>
<wgt id='1176'> +7.5214232e+04 </wgt>
<wgt id='1177'> +7.4032594e+04 </wgt>
<wgt id='1178'> +7.4177906e+04 </wgt>
<wgt id='1179'> +7.5977766e+04 </wgt>
<wgt id='1180'> +7.4712612e+04 </wgt>
<wgt id='1181'> +7.5581233e+04 </wgt>
<wgt id='1182'> +7.3020588e+04 </wgt>
<wgt id='1183'> +7.2378407e+04 </wgt>
<wgt id='1184'> +7.5583053e+04 </wgt>
<wgt id='1185'> +7.8434225e+04 </wgt>
<wgt id='1186'> +7.3181329e+04 </wgt>
<wgt id='1187'> +7.5370960e+04 </wgt>
<wgt id='1188'> +7.5111573e+04 </wgt>
<wgt id='1189'> +7.8075179e+04 </wgt>
<wgt id='1190'> +7.2291353e+04 </wgt>
<wgt id='1191'> +7.4481928e+04 </wgt>
<wgt id='1192'> +7.4215364e+04 </wgt>
<wgt id='1193'> +7.5864264e+04 </wgt>
<wgt id='1194'> +7.2829794e+04 </wgt>
<wgt id='1195'> +7.5440480e+04 </wgt>
<wgt id='1196'> +7.4946016e+04 </wgt>
<wgt id='1197'> +7.4430658e+04 </wgt>
<wgt id='1198'> +7.4916786e+04 </wgt>
<wgt id='1199'> +7.3816801e+04 </wgt>
<wgt id='1200'> +7.4813310e+04 </wgt>
<wgt id='1201'> +7.6532920e+04 </wgt>
<wgt id='1202'> +7.3833101e+04 </wgt>
<wgt id='1203'> +7.3425072e+04 </wgt>
<wgt id='1204'> +7.3149861e+04 </wgt>
<wgt id='1205'> +7.5505612e+04 </wgt>
<wgt id='1206'> +7.5304930e+04 </wgt>
<wgt id='1207'> +7.5439123e+04 </wgt>
<wgt id='1208'> +7.2465095e+04 </wgt>
<wgt id='1209'> +7.3897227e+04 </wgt>
<wgt id='1210'> +7.4918062e+04 </wgt>
<wgt id='1211'> +7.4891697e+04 </wgt>
<wgt id='1212'> +7.3897417e+04 </wgt>
<wgt id='1213'> +7.3583094e+04 </wgt>
<wgt id='1214'> +7.4508132e+04 </wgt>
<wgt id='1215'> +7.0466258e+04 </wgt>
<wgt id='1216'> +7.0990437e+04 </wgt>
<wgt id='1217'> +7.1811674e+04 </wgt>
<wgt id='1218'> +7.2904614e+04 </wgt>
<wgt id='1219'> +7.4177791e+04 </wgt>
<wgt id='1220'> +7.5120830e+04 </wgt>
<wgt id='1221'> +7.5953289e+04 </wgt>
<wgt id='1222'> +7.6927344e+04 </wgt>
<wgt id='1223'> +7.4467485e+04 </wgt>
<wgt id='1224'> +7.4548136e+04 </wgt>
<wgt id='1225'> +7.4404659e+04 </wgt>
<wgt id='1226'> +7.4590083e+04 </wgt>
<wgt id='1227'> +7.4863303e+04 </wgt>
<wgt id='1228'> +7.4686423e+04 </wgt>
<wgt id='1229'> +7.4396856e+04 </wgt>
<wgt id='1230'> +7.4641470e+04 </wgt>
<wgt id='1231'> +7.4192437e+04 </wgt>
<wgt id='1232'> +7.4629369e+04 </wgt>
<wgt id='1233'> +7.3951315e+04 </wgt>
<wgt id='1234'> +7.4471969e+04 </wgt>
<wgt id='1235'> +7.4853678e+04 </wgt>
<wgt id='1236'> +7.4219058e+04 </wgt>
<wgt id='1237'> +7.4872469e+04 </wgt>
<wgt id='1238'> +7.4263964e+04 </wgt>
<wgt id='1239'> +7.4572928e+04 </wgt>
<wgt id='1240'> +7.4613311e+04 </wgt>
<wgt id='1241'> +7.4709871e+04 </wgt>
<wgt id='1242'> +7.4254921e+04 </wgt>
<wgt id='1243'> +7.4128471e+04 </wgt>
<wgt id='1244'> +7.4530869e+04 </wgt>
<wgt id='1245'> +7.4530761e+04 </wgt>
<wgt id='1246'> +7.4411803e+04 </wgt>
<wgt id='1247'> +7.4537603e+04 </wgt>
<wgt id='1248'> +7.4240445e+04 </wgt>
<wgt id='1249'> +7.4480615e+04 </wgt>
<wgt id='1250'> +7.4611022e+04 </wgt>
<wgt id='1251'> +7.4273866e+04 </wgt>
<wgt id='1252'> +7.4834691e+04 </wgt>
<wgt id='1253'> +7.4790248e+04 </wgt>
<wgt id='1254'> +7.4363547e+04 </wgt>
<wgt id='1255'> +7.4394884e+04 </wgt>
<wgt id='1256'> +7.4417232e+04 </wgt>
<wgt id='1257'> +7.4669480e+04 </wgt>
<wgt id='1258'> +7.4461639e+04 </wgt>
<wgt id='1259'> +7.4453406e+04 </wgt>
<wgt id='1260'> +7.4426991e+04 </wgt>
<wgt id='1261'> +7.4496304e+04 </wgt>
<wgt id='1262'> +7.4362722e+04 </wgt>
<wgt id='1263'> +7.4375245e+04 </wgt>
<wgt id='1264'> +7.4354229e+04 </wgt>
<wgt id='1265'> +7.4479750e+04 </wgt>
<wgt id='1266'> +7.4395534e+04 </wgt>
<wgt id='1267'> +7.4450559e+04 </wgt>
<wgt id='1268'> +7.4586741e+04 </wgt>
<wgt id='1269'> +7.4437096e+04 </wgt>
<wgt id='1270'> +7.4379943e+04 </wgt>
<wgt id='1271'> +7.4353240e+04 </wgt>
<wgt id='1272'> +7.4436072e+04 </wgt>
<wgt id='1273'> +7.4483958e+04 </wgt>
<wgt id='1274'> +7.4586764e+04 </wgt>
<wgt id='1275'> +7.4403966e+04 </wgt>
<wgt id='1276'> +7.4488050e+04 </wgt>
<wgt id='1277'> +7.4427663e+04 </wgt>
<wgt id='1278'> +7.4417365e+04 </wgt>
<wgt id='1279'> +7.4426358e+04 </wgt>
<wgt id='1280'> +7.4489053e+04 </wgt>
<wgt id='1281'> +7.4495613e+04 </wgt>
<wgt id='1282'> +7.4485849e+04 </wgt>
<wgt id='1283'> +7.4464512e+04 </wgt>
<wgt id='1284'> +7.4453403e+04 </wgt>
<wgt id='1285'> +7.4457221e+04 </wgt>
<wgt id='1286'> +7.4483982e+04 </wgt>
<wgt id='1287'> +7.4411174e+04 </wgt>
<wgt id='1288'> +7.4368022e+04 </wgt>
<wgt id='1289'> +7.4555146e+04 </wgt>
<wgt id='1290'> +7.4467007e+04 </wgt>
<wgt id='1291'> +7.4434101e+04 </wgt>
<wgt id='1292'> +7.4568438e+04 </wgt>
<wgt id='1293'> +7.4414876e+04 </wgt>
<wgt id='1294'> +7.4476641e+04 </wgt>
<wgt id='1295'> +7.4468619e+04 </wgt>
<wgt id='1296'> +7.4502528e+04 </wgt>
<wgt id='1297'> +7.4492074e+04 </wgt>
<wgt id='1298'> +7.4436405e+04 </wgt>
<wgt id='1299'> +7.4467081e+04 </wgt>
<wgt id='1300'> +7.4485042e+04 </wgt>
<wgt id='1301'> +7.4496075e+04 </wgt>
<wgt id='1302'> +7.4469599e+04 </wgt>
<wgt id='1303'> +7.4477434e+04 </wgt>
<wgt id='1304'> +7.4465420e+04 </wgt>
<wgt id='1305'> +7.4479115e+04 </wgt>
<wgt id='1306'> +7.4457734e+04 </wgt>
<wgt id='1307'> +7.4481152e+04 </wgt>
<wgt id='1308'> +7.4469797e+04 </wgt>
<wgt id='1309'> +7.4482765e+04 </wgt>
<wgt id='1310'> +7.4455522e+04 </wgt>
<wgt id='1311'> +7.4495829e+04 </wgt>
<wgt id='1312'> +7.4476856e+04 </wgt>
<wgt id='1313'> +7.4476094e+04 </wgt>
<wgt id='1314'> +7.4449439e+04 </wgt>
<wgt id='1315'> +7.4485188e+04 </wgt>
<wgt id='1316'> +7.4426474e+04 </wgt>
<wgt id='1317'> +7.4489947e+04 </wgt>
<wgt id='1318'> +7.4475247e+04 </wgt>
<wgt id='1319'> +7.4446348e+04 </wgt>
<wgt id='1320'> +7.4453689e+04 </wgt>
<wgt id='1321'> +7.4476112e+04 </wgt>
<wgt id='1322'> +7.4449059e+04 </wgt>
<wgt id='1323'> +7.4459852e+04 </wgt>
<wgt id='1324'> +7.3706493e+04 </wgt>
<wgt id='1325'> +7.5467572e+04 </wgt>
<wgt id='1326'> +7.2861934e+04 </wgt>
<wgt id='1327'> +7.1303934e+04 </wgt>
<wgt id='1328'> +7.3480635e+04 </wgt>
<wgt id='1329'> +7.3993376e+04 </wgt>
<wgt id='1330'> +7.3266772e+04 </wgt>
<wgt id='1331'> +7.3629191e+04 </wgt>
<wgt id='1332'> +7.3746036e+04 </wgt>
<wgt id='1333'> +7.3640592e+04 </wgt>
<wgt id='1334'> +7.4033740e+04 </wgt>
<wgt id='1335'> +7.2797693e+04 </wgt>
<wgt id='1336'> +7.4563921e+04 </wgt>
<wgt id='1337'> +7.3063476e+04 </wgt>
<wgt id='1338'> +7.4365471e+04 </wgt>
<wgt id='1339'> +7.4457397e+04 </wgt>
<wgt id='1340'> +7.2502801e+04 </wgt>
<wgt id='1341'> +7.3038924e+04 </wgt>
<wgt id='1342'> +7.3153451e+04 </wgt>
<wgt id='1343'> +7.4143051e+04 </wgt>
<wgt id='1344'> +7.3143878e+04 </wgt>
<wgt id='1345'> +7.4153252e+04 </wgt>
<wgt id='1346'> +7.1941001e+04 </wgt>
<wgt id='1347'> +7.5260144e+04 </wgt>
<wgt id='1348'> +7.3648764e+04 </wgt>
<wgt id='1349'> +7.4361903e+04 </wgt>
<wgt id='1350'> +7.4794162e+04 </wgt>
<wgt id='1351'> +7.4539005e+04 </wgt>
<wgt id='1352'> +7.2714799e+04 </wgt>
<wgt id='1353'> +7.4449212e+04 </wgt>
<wgt id='1354'> +7.4039129e+04 </wgt>
<wgt id='1355'> +7.3057411e+04 </wgt>
<wgt id='1356'> +7.2796522e+04 </wgt>
<wgt id='1357'> +7.3118969e+04 </wgt>
<wgt id='1358'> +7.3729013e+04 </wgt>
<wgt id='1359'> +7.3285754e+04 </wgt>
<wgt id='1360'> +7.4596156e+04 </wgt>
<wgt id='1361'> +7.4248990e+04 </wgt>
<wgt id='1362'> +7.4829221e+04 </wgt>
<wgt id='1363'> +7.4096769e+04 </wgt>
<wgt id='1364'> +7.3791888e+04 </wgt>
<wgt id='1365'> +7.1857239e+04 </wgt>
<wgt id='1366'> +7.3288278e+04 </wgt>
<wgt id='1367'> +7.3681022e+04 </wgt>
<wgt id='1368'> +7.5132812e+04 </wgt>
<wgt id='1369'> +7.2619235e+04 </wgt>
<wgt id='1370'> +7.2902302e+04 </wgt>
<wgt id='1371'> +7.2800715e+04 </wgt>
<wgt id='1372'> +7.4086044e+04 </wgt>
<wgt id='1373'> +7.2762441e+04 </wgt>
<wgt id='1374'> +7.3831742e+04 </wgt>
<wgt id='1375'> +7.3128673e+04 </wgt>
<wgt id='1376'> +7.2991308e+04 </wgt>
<wgt id='1377'> +7.3219458e+04 </wgt>
<wgt id='1378'> +7.4409364e+04 </wgt>
<wgt id='1379'> +7.4197291e+04 </wgt>
<wgt id='1380'> +7.2840231e+04 </wgt>
<wgt id='1381'> +7.3603441e+04 </wgt>
<wgt id='1382'> +7.2876258e+04 </wgt>
<wgt id='1383'> +7.3931746e+04 </wgt>
<wgt id='1384'> +7.3040456e+04 </wgt>
<wgt id='1385'> +7.2248165e+04 </wgt>
<wgt id='1386'> +7.3731900e+04 </wgt>
<wgt id='1387'> +7.2839652e+04 </wgt>
<wgt id='1388'> +7.2951877e+04 </wgt>
<wgt id='1389'> +7.3405159e+04 </wgt>
<wgt id='1390'> +7.0934110e+04 </wgt>
<wgt id='1391'> +7.1241010e+04 </wgt>
<wgt id='1392'> +7.3761346e+04 </wgt>
<wgt id='1393'> +7.3468260e+04 </wgt>
<wgt id='1394'> +7.1857239e+04 </wgt>
<wgt id='1395'> +7.4186164e+04 </wgt>
<wgt id='1396'> +7.5426308e+04 </wgt>
<wgt id='1397'> +7.3906383e+04 </wgt>
<wgt id='1398'> +7.3810898e+04 </wgt>
<wgt id='1399'> +7.3877244e+04 </wgt>
<wgt id='1400'> +7.4708017e+04 </wgt>
<wgt id='1401'> +7.3975006e+04 </wgt>
<wgt id='1402'> +7.4087324e+04 </wgt>
<wgt id='1403'> +7.3869974e+04 </wgt>
<wgt id='1404'> +7.3863110e+04 </wgt>
<wgt id='1405'> +7.0797381e+04 </wgt>
<wgt id='1406'> +7.3856913e+04 </wgt>
<wgt id='1407'> +7.3689214e+04 </wgt>
<wgt id='1408'> +7.3872621e+04 </wgt>
<wgt id='1409'> +7.3296258e+04 </wgt>
<wgt id='1410'> +7.3579331e+04 </wgt>
<wgt id='1411'> +7.3394469e+04 </wgt>
<wgt id='1412'> +7.3729589e+04 </wgt>
<wgt id='1413'> +7.3296463e+04 </wgt>
<wgt id='1414'> +7.2311932e+04 </wgt>
<wgt id='1415'> +7.1484090e+04 </wgt>
<wgt id='1416'> +7.3332938e+04 </wgt>
<wgt id='1417'> +7.4941966e+04 </wgt>
<wgt id='1418'> +7.4471547e+04 </wgt>
<wgt id='1419'> +7.2859667e+04 </wgt>
<wgt id='1420'> +7.1973717e+04 </wgt>
<wgt id='1421'> +7.3559293e+04 </wgt>
<wgt id='1422'> +7.2561499e+04 </wgt>
<wgt id='1423'> +7.1275703e+04 </wgt>
<wgt id='1424'> +7.4361034e+04 </wgt>
<wgt id='1425'> +7.3434501e+04 </wgt>
<wgt id='1426'> +7.4245104e+04 </wgt>
<wgt id='1427'> +7.3162383e+04 </wgt>
<wgt id='1428'> +7.4304219e+04 </wgt>
<wgt id='1429'> +7.2820155e+04 </wgt>
<wgt id='1430'> +7.3973887e+04 </wgt>
<wgt id='1431'> +7.3547385e+04 </wgt>
<wgt id='1432'> +7.3675134e+04 </wgt>
<wgt id='1433'> +7.3488649e+04 </wgt>
<wgt id='1434'> +7.3435595e+04 </wgt>
<wgt id='1435'> +7.3682765e+04 </wgt>
<wgt id='1436'> +7.3314536e+04 </wgt>
<wgt id='1437'> +7.3258196e+04 </wgt>
<wgt id='1438'> +7.3563586e+04 </wgt>
<wgt id='1439'> +7.2974060e+04 </wgt>
<wgt id='1440'> +7.3403842e+04 </wgt>
<wgt id='1441'> +7.3231839e+04 </wgt>
<wgt id='1442'> +7.3697263e+04 </wgt>
<wgt id='1443'> +7.3630060e+04 </wgt>
<wgt id='1444'> +7.3629140e+04 </wgt>
<wgt id='1445'> +7.3613281e+04 </wgt>
<wgt id='1446'> +7.3383479e+04 </wgt>
<wgt id='1447'> +7.3562350e+04 </wgt>
<wgt id='1448'> +7.3631912e+04 </wgt>
<wgt id='1449'> +7.3566841e+04 </wgt>
<wgt id='1450'> +7.3615022e+04 </wgt>
<wgt id='1451'> +7.3631999e+04 </wgt>
<wgt id='1452'> +7.3658583e+04 </wgt>
<wgt id='1453'> +7.3508554e+04 </wgt>
<wgt id='1454'> +7.3608106e+04 </wgt>
<wgt id='1455'> +7.3509877e+04 </wgt>
<wgt id='1456'> +7.3565434e+04 </wgt>
<wgt id='1457'> +7.3550061e+04 </wgt>
<wgt id='1458'> +7.3585895e+04 </wgt>
<wgt id='1459'> +7.3555251e+04 </wgt>
<wgt id='1460'> +7.3542257e+04 </wgt>
<wgt id='1461'> +7.3534817e+04 </wgt>
<wgt id='1462'> +7.3531309e+04 </wgt>
<wgt id='1463'> +7.3567974e+04 </wgt>
<wgt id='1464'> +7.3572711e+04 </wgt>
<wgt id='1465'> +7.3527577e+04 </wgt>
<wgt id='1466'> +7.3534060e+04 </wgt>
<wgt id='1467'> +7.3518791e+04 </wgt>
<wgt id='1468'> +7.3535157e+04 </wgt>
<wgt id='1469'> +7.3557992e+04 </wgt>
<wgt id='1470'> +7.3544484e+04 </wgt>
<wgt id='1471'> +7.3562456e+04 </wgt>
<wgt id='1472'> +7.3542204e+04 </wgt>
<wgt id='1473'> +7.3541810e+04 </wgt>
<wgt id='1474'> +7.3543721e+04 </wgt>
<wgt id='1475'> +7.3568173e+04 </wgt>
<wgt id='1476'> +7.3537610e+04 </wgt>
<wgt id='1477'> +7.3548639e+04 </wgt>
<wgt id='1478'> +7.3570148e+04 </wgt>
<wgt id='1479'> +7.3532669e+04 </wgt>
<wgt id='1480'> +7.3547144e+04 </wgt>
<wgt id='1481'> +7.3547227e+04 </wgt>
<wgt id='1482'> +7.2820155e+04 </wgt>
<wgt id='1483'> +7.3973887e+04 </wgt>
<wgt id='1484'> +7.2864240e+04 </wgt>
<wgt id='1485'> +7.2948770e+04 </wgt>
<wgt id='1486'> +7.2812089e+04 </wgt>
<wgt id='1487'> +7.1941766e+04 </wgt>
<wgt id='1488'> +7.3826878e+04 </wgt>
<wgt id='1489'> +7.3115341e+04 </wgt>
<wgt id='1490'> +7.0762014e+04 </wgt>
<wgt id='1491'> +7.2653275e+04 </wgt>
<wgt id='1492'> +7.3432192e+04 </wgt>
<wgt id='1493'> +7.4375371e+04 </wgt>
<wgt id='1494'> +7.2235231e+04 </wgt>
<wgt id='1495'> +7.2055000e+04 </wgt>
<wgt id='1496'> +7.2930641e+04 </wgt>
<wgt id='1497'> +7.1297344e+04 </wgt>
<wgt id='1498'> +7.3458148e+04 </wgt>
<wgt id='1499'> +7.2883855e+04 </wgt>
<wgt id='1500'> +7.0608945e+04 </wgt>
<wgt id='1501'> +7.2897312e+04 </wgt>
<wgt id='1502'> +7.2981294e+04 </wgt>
<wgt id='1503'> +7.1641269e+04 </wgt>
<wgt id='1504'> +7.2985937e+04 </wgt>
<wgt id='1505'> +7.3162648e+04 </wgt>
<wgt id='1506'> +7.3496793e+04 </wgt>
<wgt id='1507'> +7.3191615e+04 </wgt>
<wgt id='1508'> +7.1364414e+04 </wgt>
<wgt id='1509'> +7.3181372e+04 </wgt>
<wgt id='1510'> +7.3709606e+04 </wgt>
<wgt id='1511'> +7.3313896e+04 </wgt>
<wgt id='1512'> +7.3510887e+04 </wgt>
<wgt id='1513'> +7.2130205e+04 </wgt>
<wgt id='1514'> +7.4115175e+04 </wgt>
<wgt id='1515'> +7.3107641e+04 </wgt>
<wgt id='1516'> +7.3185567e+04 </wgt>
<wgt id='1517'> +7.2135078e+04 </wgt>
<wgt id='1518'> +7.2668281e+04 </wgt>
<wgt id='1519'> +7.2612918e+04 </wgt>
<wgt id='1520'> +7.3690420e+04 </wgt>
<wgt id='1521'> +7.3304394e+04 </wgt>
<wgt id='1522'> +7.2336677e+04 </wgt>
<wgt id='1523'> +7.2610913e+04 </wgt>
<wgt id='1524'> +7.3172448e+04 </wgt>
<wgt id='1525'> +7.2912000e+04 </wgt>
<wgt id='1526'> +7.1890738e+04 </wgt>
<wgt id='1527'> +7.2974510e+04 </wgt>
<wgt id='1528'> +7.3092533e+04 </wgt>
<wgt id='1529'> +7.2483256e+04 </wgt>
<wgt id='1530'> +7.2532688e+04 </wgt>
<wgt id='1531'> +7.4138288e+04 </wgt>
<wgt id='1532'> +7.1481121e+04 </wgt>
<wgt id='1533'> +7.3672597e+04 </wgt>
<wgt id='1534'> +7.2832917e+04 </wgt>
<wgt id='1535'> +7.3685557e+04 </wgt>
<wgt id='1536'> +7.2666548e+04 </wgt>
<wgt id='1537'> +7.3927101e+04 </wgt>
<wgt id='1538'> +7.2437804e+04 </wgt>
<wgt id='1539'> +7.3804703e+04 </wgt>
<wgt id='1540'> +7.3436204e+04 </wgt>
<wgt id='1541'> +7.3097940e+04 </wgt>
<wgt id='1542'> +7.2747766e+04 </wgt>
<wgt id='1543'> +7.2573540e+04 </wgt>
<wgt id='1544'> +7.2814972e+04 </wgt>
<wgt id='1545'> +7.2952070e+04 </wgt>
<wgt id='1546'> +7.2612289e+04 </wgt>
<wgt id='1547'> +7.2817124e+04 </wgt>
<wgt id='1548'> +7.3445541e+04 </wgt>
<wgt id='1549'> +7.2630822e+04 </wgt>
<wgt id='1550'> +7.2758339e+04 </wgt>
<wgt id='1551'> +7.3387630e+04 </wgt>
<wgt id='1552'> +7.2076564e+04 </wgt>
<wgt id='1553'> +7.3121090e+04 </wgt>
<wgt id='1554'> +7.3790155e+04 </wgt>
<wgt id='1555'> +7.2876395e+04 </wgt>
<wgt id='1556'> +7.2720839e+04 </wgt>
<wgt id='1557'> +7.2758361e+04 </wgt>
<wgt id='1558'> +7.2614055e+04 </wgt>
<wgt id='1559'> +7.3332201e+04 </wgt>
<wgt id='1560'> +7.3368568e+04 </wgt>
<wgt id='1561'> +7.3438733e+04 </wgt>
<wgt id='1562'> +7.2933978e+04 </wgt>
<wgt id='1563'> +7.4368156e+04 </wgt>
<wgt id='1564'> +7.2914538e+04 </wgt>
<wgt id='1565'> +7.3111487e+04 </wgt>
<wgt id='1566'> +7.1866887e+04 </wgt>
<wgt id='1567'> +7.2083358e+04 </wgt>
<wgt id='1568'> +7.2353909e+04 </wgt>
<wgt id='1569'> +7.3122852e+04 </wgt>
<wgt id='1570'> +7.2069984e+04 </wgt>
<wgt id='1571'> +7.3018594e+04 </wgt>
<wgt id='1572'> +7.4406478e+04 </wgt>
<wgt id='1573'> +7.2384905e+04 </wgt>
<wgt id='1574'> +7.1623037e+04 </wgt>
<wgt id='1575'> +7.2688044e+04 </wgt>
<wgt id='1576'> +7.3273342e+04 </wgt>
<wgt id='1577'> +7.3067050e+04 </wgt>
<wgt id='1578'> +7.2405964e+04 </wgt>
<wgt id='1579'> +7.2041545e+04 </wgt>
<wgt id='1580'> +7.2817289e+04 </wgt>
<wgt id='1581'> +7.3232738e+04 </wgt>
<wgt id='1582'> +7.4087814e+04 </wgt>
<wgt id='1583'> +7.3313032e+04 </wgt>
<wgt id='1584'> +7.1405642e+04 </wgt>
<wgt id='1585'> +7.0360424e+04 </wgt>
<wgt id='1586'> +5.7231970e+04 </wgt>
<wgt id='1587'> +7.1944730e+04 </wgt>
<wgt id='1588'> +7.2820155e+04 </wgt>
<wgt id='1589'> +7.3125898e+04 </wgt>
<wgt id='1590'> +7.3670239e+04 </wgt>
<wgt id='1591'> +7.3973887e+04 </wgt>
<wgt id='1592'> +7.4360896e+04 </wgt>
<wgt id='1593'> +7.3358912e+04 </wgt>
<wgt id='1594'> +7.2687725e+04 </wgt>
<wgt id='1595'> +7.2569056e+04 </wgt>
<wgt id='1596'> +7.3966749e+04 </wgt>
<wgt id='1597'> +7.2244888e+04 </wgt>
<wgt id='1598'> +7.2596873e+04 </wgt>
<wgt id='1599'> +7.3482168e+04 </wgt>
<wgt id='1600'> +7.2543206e+04 </wgt>
<wgt id='1601'> +7.3949529e+04 </wgt>
<wgt id='1602'> +7.2736069e+04 </wgt>
<wgt id='1603'> +7.3998016e+04 </wgt>
<wgt id='1604'> +7.3617466e+04 </wgt>
<wgt id='1605'> +7.3169141e+04 </wgt>
<wgt id='1606'> +7.3338650e+04 </wgt>
<wgt id='1607'> +7.3024684e+04 </wgt>
<wgt id='1608'> +7.3111300e+04 </wgt>
<wgt id='1609'> +7.2716301e+04 </wgt>
<wgt id='1610'> +7.3139214e+04 </wgt>
<wgt id='1611'> +7.3436677e+04 </wgt>
<wgt id='1612'> +7.3748518e+04 </wgt>
<wgt id='1613'> +7.2257132e+04 </wgt>
<wgt id='1614'> +7.3537736e+04 </wgt>
<wgt id='1615'> +7.3027089e+04 </wgt>
<wgt id='1616'> +7.2723634e+04 </wgt>
<wgt id='1617'> +7.3384759e+04 </wgt>
<wgt id='1618'> +7.3594745e+04 </wgt>
<wgt id='1619'> +7.2731092e+04 </wgt>
<wgt id='1620'> +7.3068396e+04 </wgt>
<wgt id='1621'> +7.3380168e+04 </wgt>
<wgt id='1622'> +7.2554032e+04 </wgt>
<wgt id='1623'> +7.3524275e+04 </wgt>
<wgt id='1624'> +7.3403456e+04 </wgt>
<wgt id='1625'> +7.2143014e+04 </wgt>
<wgt id='1626'> +7.2724539e+04 </wgt>
<wgt id='1627'> +7.3616973e+04 </wgt>
<wgt id='1628'> +7.4001691e+04 </wgt>
<wgt id='1629'> +7.2860311e+04 </wgt>
<wgt id='1630'> +7.4140745e+04 </wgt>
<wgt id='1631'> +7.2140762e+04 </wgt>
<wgt id='1632'> +7.3931839e+04 </wgt>
<wgt id='1633'> +7.2393390e+04 </wgt>
<wgt id='1634'> +7.3456941e+04 </wgt>
<wgt id='1635'> +7.3182559e+04 </wgt>
<wgt id='1636'> +7.2441814e+04 </wgt>
<wgt id='1637'> +7.4281151e+04 </wgt>
<wgt id='1638'> +7.5016869e+04 </wgt>
<wgt id='1639'> +7.2481078e+04 </wgt>
<wgt id='1640'> +7.3406346e+04 </wgt>
<wgt id='1641'> +7.2664159e+04 </wgt>
<wgt id='1642'> +7.2358601e+04 </wgt>
<wgt id='1643'> +7.4226228e+04 </wgt>
<wgt id='1644'> +7.5413264e+04 </wgt>
<wgt id='1645'> +7.0930969e+04 </wgt>
<wgt id='1646'> +7.3872532e+04 </wgt>
<wgt id='1647'> +7.2941125e+04 </wgt>
<wgt id='1648'> +7.3776930e+04 </wgt>
<wgt id='1649'> +7.3024344e+04 </wgt>
<wgt id='1650'> +7.3037036e+04 </wgt>
<wgt id='1651'> +7.3653909e+04 </wgt>
<wgt id='1652'> +7.3858260e+04 </wgt>
<wgt id='1653'> +7.3618730e+04 </wgt>
<wgt id='1654'> +7.3086116e+04 </wgt>
<wgt id='1655'> +7.2814531e+04 </wgt>
<wgt id='1656'> +7.2038068e+04 </wgt>
<wgt id='1657'> +7.1565283e+04 </wgt>
<wgt id='1658'> +7.1468554e+04 </wgt>
<wgt id='1659'> +7.2158919e+04 </wgt>
<wgt id='1660'> +7.1891422e+04 </wgt>
<wgt id='1661'> +7.2644565e+04 </wgt>
<wgt id='1662'> +7.1264692e+04 </wgt>
<wgt id='1663'> +7.1389974e+04 </wgt>
<wgt id='1664'> +7.2048004e+04 </wgt>
<wgt id='1665'> +7.1874788e+04 </wgt>
<wgt id='1666'> +7.1892350e+04 </wgt>
<wgt id='1667'> +7.2487561e+04 </wgt>
<wgt id='1668'> +7.1566228e+04 </wgt>
<wgt id='1669'> +7.2305764e+04 </wgt>
<wgt id='1670'> +7.1481490e+04 </wgt>
<wgt id='1671'> +7.2201355e+04 </wgt>
<wgt id='1672'> +7.1486673e+04 </wgt>
<wgt id='1673'> +7.1924132e+04 </wgt>
<wgt id='1674'> +7.2117949e+04 </wgt>
<wgt id='1675'> +7.1767454e+04 </wgt>
<wgt id='1676'> +7.2336767e+04 </wgt>
<wgt id='1677'> +7.1084115e+04 </wgt>
<wgt id='1678'> +7.2774331e+04 </wgt>
<wgt id='1679'> +7.2679232e+04 </wgt>
<wgt id='1680'> +7.1998953e+04 </wgt>
<wgt id='1681'> +7.1226779e+04 </wgt>
<wgt id='1682'> +7.2288091e+04 </wgt>
<wgt id='1683'> +7.2064470e+04 </wgt>
<wgt id='1684'> +7.1933410e+04 </wgt>
<wgt id='1685'> +7.2506191e+04 </wgt>
<wgt id='1686'> +7.1423885e+04 </wgt>
<wgt id='1687'> +7.2160365e+04 </wgt>
<wgt id='1688'> +7.1688685e+04 </wgt>
<wgt id='1689'> +7.2849228e+04 </wgt>
<wgt id='1690'> +7.1407841e+04 </wgt>
<wgt id='1691'> +7.2099876e+04 </wgt>
<wgt id='1692'> +7.1683235e+04 </wgt>
<wgt id='1693'> +7.3140579e+04 </wgt>
<wgt id='1694'> +7.1301263e+04 </wgt>
<wgt id='1695'> +7.2950110e+04 </wgt>
<wgt id='1696'> +7.0814703e+04 </wgt>
<wgt id='1697'> +7.2045663e+04 </wgt>
<wgt id='1698'> +7.2081297e+04 </wgt>
<wgt id='1699'> +7.1703160e+04 </wgt>
<wgt id='1700'> +7.2205189e+04 </wgt>
<wgt id='1701'> +7.0830202e+04 </wgt>
<wgt id='1702'> +7.3411335e+04 </wgt>
<wgt id='1703'> +7.2528380e+04 </wgt>
<wgt id='1704'> +7.1669672e+04 </wgt>
<wgt id='1705'> +7.2616432e+04 </wgt>
<wgt id='1706'> +7.1277884e+04 </wgt>
<wgt id='1707'> +7.0774303e+04 </wgt>
<wgt id='1708'> +7.2744553e+04 </wgt>
<wgt id='1709'> +7.1352848e+04 </wgt>
<wgt id='1710'> +7.2806207e+04 </wgt>
<wgt id='1711'> +7.1768719e+04 </wgt>
<wgt id='1712'> +7.1717802e+04 </wgt>
<wgt id='1713'> +7.1067047e+04 </wgt>
<wgt id='1714'> +7.2337501e+04 </wgt>
<wgt id='1715'> +7.1647287e+04 </wgt>
<wgt id='1716'> +7.3251396e+04 </wgt>
<wgt id='1717'> +7.1831212e+04 </wgt>
<wgt id='1718'> +7.1961262e+04 </wgt>
<wgt id='1719'> +7.1664476e+04 </wgt>
<wgt id='1720'> +7.1560174e+04 </wgt>
<wgt id='1721'> +7.2078749e+04 </wgt>
<wgt id='1722'> +7.1674920e+04 </wgt>
<wgt id='1723'> +7.2087369e+04 </wgt>
<wgt id='1724'> +7.1944933e+04 </wgt>
<wgt id='1725'> +7.1738728e+04 </wgt>
<wgt id='1726'> +7.1793148e+04 </wgt>
<wgt id='1727'> +7.1870412e+04 </wgt>
<wgt id='1728'> +7.1631233e+04 </wgt>
<wgt id='1729'> +7.2024709e+04 </wgt>
<wgt id='1730'> +7.1890407e+04 </wgt>
<wgt id='1731'> +7.1789321e+04 </wgt>
<wgt id='1732'> +7.1777786e+04 </wgt>
<wgt id='1733'> +7.1777786e+04 </wgt>
<wgt id='1734'> +7.2086531e+04 </wgt>
<wgt id='1735'> +7.1657356e+04 </wgt>
<wgt id='1736'> +7.1922292e+04 </wgt>
<wgt id='1737'> +7.1710946e+04 </wgt>
<wgt id='1738'> +7.1934374e+04 </wgt>
<wgt id='1739'> +7.1645753e+04 </wgt>
<wgt id='1740'> +7.1746667e+04 </wgt>
<wgt id='1741'> +7.2034961e+04 </wgt>
<wgt id='1742'> +7.1482174e+04 </wgt>
<wgt id='1743'> +7.2232645e+04 </wgt>
<wgt id='1744'> +7.1801942e+04 </wgt>
<wgt id='1745'> +7.1910431e+04 </wgt>
<wgt id='1746'> +7.1891137e+04 </wgt>
<wgt id='1747'> +7.1789325e+04 </wgt>
<wgt id='1748'> +7.1820611e+04 </wgt>
<wgt id='1749'> +7.1809302e+04 </wgt>
<wgt id='1750'> +7.1877921e+04 </wgt>
<wgt id='1751'> +7.1781286e+04 </wgt>
<wgt id='1752'> +7.1931402e+04 </wgt>
<wgt id='1753'> +7.1709980e+04 </wgt>
<wgt id='1754'> +7.1889798e+04 </wgt>
<wgt id='1755'> +7.1799954e+04 </wgt>
<wgt id='1756'> +7.2010366e+04 </wgt>
<wgt id='1757'> +7.1401683e+04 </wgt>
<wgt id='1758'> +7.2183032e+04 </wgt>
<wgt id='1759'> +7.1484646e+04 </wgt>
<wgt id='1760'> +7.1476699e+04 </wgt>
<wgt id='1761'> +7.2225731e+04 </wgt>
<wgt id='1762'> +7.1784859e+04 </wgt>
<wgt id='1763'> +7.1556678e+04 </wgt>
<wgt id='1764'> +7.1819067e+04 </wgt>
<wgt id='1765'> +7.1958179e+04 </wgt>
<wgt id='1766'> +7.1852940e+04 </wgt>
<wgt id='1767'> +7.1789831e+04 </wgt>
<wgt id='1768'> +7.1932110e+04 </wgt>
<wgt id='1769'> +7.1707642e+04 </wgt>
<wgt id='1770'> +7.1435669e+04 </wgt>
<wgt id='1771'> +7.1945531e+04 </wgt>
<wgt id='1772'> +7.2026906e+04 </wgt>
<wgt id='1773'> +7.1713225e+04 </wgt>
<wgt id='1774'> +7.1601998e+04 </wgt>
<wgt id='1775'> +7.1985764e+04 </wgt>
<wgt id='1776'> +7.1817312e+04 </wgt>
<wgt id='1777'> +7.1851380e+04 </wgt>
<wgt id='1778'> +7.1716183e+04 </wgt>
<wgt id='1779'> +7.1737618e+04 </wgt>
<wgt id='1780'> +7.2332419e+04 </wgt>
<wgt id='1781'> +7.1918910e+04 </wgt>
<wgt id='1782'> +7.1831212e+04 </wgt>
<wgt id='1783'> +7.1869762e+04 </wgt>
<wgt id='1784'> +7.2716882e+04 </wgt>
<wgt id='1785'> +7.2910450e+04 </wgt>
<wgt id='1786'> +7.1611028e+04 </wgt>
<wgt id='1787'> +7.2742300e+04 </wgt>
<wgt id='1788'> +7.2521209e+04 </wgt>
<wgt id='1789'> +7.2734084e+04 </wgt>
<wgt id='1790'> +7.2866029e+04 </wgt>
<wgt id='1791'> +7.2737272e+04 </wgt>
<wgt id='1792'> +7.1416127e+04 </wgt>
<wgt id='1793'> +7.2884785e+04 </wgt>
<wgt id='1794'> +7.2275942e+04 </wgt>
<wgt id='1795'> +7.2716585e+04 </wgt>
<wgt id='1796'> +7.2834080e+04 </wgt>
<wgt id='1797'> +7.2583341e+04 </wgt>
<wgt id='1798'> +7.2760517e+04 </wgt>
<wgt id='1799'> +7.2678542e+04 </wgt>
<wgt id='1800'> +7.2728208e+04 </wgt>
<wgt id='1801'> +7.2736917e+04 </wgt>
<wgt id='1802'> +7.2842269e+04 </wgt>
<wgt id='1803'> +7.2707604e+04 </wgt>
<wgt id='1804'> +7.2855276e+04 </wgt>
<wgt id='1805'> +7.2724739e+04 </wgt>
<wgt id='1806'> +7.2643893e+04 </wgt>
<wgt id='1807'> +7.2714914e+04 </wgt>
<wgt id='1808'> +7.2743664e+04 </wgt>
<wgt id='1809'> +7.2793693e+04 </wgt>
<wgt id='1810'> +7.2738979e+04 </wgt>
<wgt id='1811'> +7.2756008e+04 </wgt>
<wgt id='1812'> +7.2679132e+04 </wgt>
<wgt id='1813'> +7.2713679e+04 </wgt>
<wgt id='1814'> +7.3099276e+04 </wgt>
<wgt id='1815'> +7.2640451e+04 </wgt>
<wgt id='1816'> +7.2729162e+04 </wgt>
<wgt id='1817'> +7.2691907e+04 </wgt>
<wgt id='1818'> +7.2794723e+04 </wgt>
<wgt id='1819'> +7.2749642e+04 </wgt>
<wgt id='1820'> +7.2861116e+04 </wgt>
<wgt id='1821'> +7.2736558e+04 </wgt>
<wgt id='1822'> +7.2727141e+04 </wgt>
<wgt id='1823'> +7.2746735e+04 </wgt>
<wgt id='1824'> +7.2726450e+04 </wgt>
<wgt id='1825'> +7.2447898e+04 </wgt>
<wgt id='1826'> +7.3421433e+04 </wgt>
<wgt id='1827'> +7.5170003e+04 </wgt>
<wgt id='1828'> +7.5227907e+04 </wgt>
<wgt id='1829'> +7.5109646e+04 </wgt>
<wgt id='1830'> +7.5147865e+04 </wgt>
<wgt id='1831'> +7.5189605e+04 </wgt>
<wgt id='1832'> +7.5328969e+04 </wgt>
<wgt id='1833'> +7.5008766e+04 </wgt>
<wgt id='1834'> +7.5266453e+04 </wgt>
<wgt id='1835'> +7.5067461e+04 </wgt>
<wgt id='1836'> +7.5218395e+04 </wgt>
<wgt id='1837'> +7.5120191e+04 </wgt>
<wgt id='1838'> +7.5262080e+04 </wgt>
<wgt id='1839'> +7.5075378e+04 </wgt>
<wgt id='1840'> +7.5027058e+04 </wgt>
<wgt id='1841'> +7.5308901e+04 </wgt>
<wgt id='1842'> +7.5068145e+04 </wgt>
<wgt id='1843'> +7.5203897e+04 </wgt>
<wgt id='1844'> +7.5100672e+04 </wgt>
<wgt id='1845'> +7.5224125e+04 </wgt>
<wgt id='1846'> +7.5064501e+04 </wgt>
<wgt id='1847'> +7.5268879e+04 </wgt>
<wgt id='1848'> +7.4606422e+04 </wgt>
<wgt id='1849'> +7.5641566e+04 </wgt>
<wgt id='1850'> +7.5007352e+04 </wgt>
<wgt id='1851'> +7.5336708e+04 </wgt>
<wgt id='1852'> +7.4955221e+04 </wgt>
<wgt id='1853'> +7.5228820e+04 </wgt>
<wgt id='1854'> +7.5156929e+04 </wgt>
<wgt id='1855'> +7.5234254e+04 </wgt>
<wgt id='1856'> +7.4040406e+04 </wgt>
<wgt id='1857'> +7.4027407e+04 </wgt>
<wgt id='1858'> +7.3974111e+04 </wgt>
<wgt id='1859'> +7.4136873e+04 </wgt>
<wgt id='1860'> +7.4039839e+04 </wgt>
<wgt id='1861'> +7.3975603e+04 </wgt>
<wgt id='1862'> +7.3901030e+04 </wgt>
<wgt id='1863'> +7.4093926e+04 </wgt>
<wgt id='1864'> +7.3974886e+04 </wgt>
<wgt id='1865'> +7.4183819e+04 </wgt>
<wgt id='1866'> +7.4018164e+04 </wgt>
<wgt id='1867'> +7.3972332e+04 </wgt>
<wgt id='1868'> +7.3923633e+04 </wgt>
<wgt id='1869'> +7.4086777e+04 </wgt>
<wgt id='1870'> +7.3980734e+04 </wgt>
<wgt id='1871'> +7.4074336e+04 </wgt>
<wgt id='1872'> +7.4001125e+04 </wgt>
<wgt id='1873'> +7.4049213e+04 </wgt>
<wgt id='1874'> +7.3985510e+04 </wgt>
<wgt id='1875'> +7.4139232e+04 </wgt>
<wgt id='1876'> +7.3858043e+04 </wgt>
<wgt id='1877'> +7.3930041e+04 </wgt>
<wgt id='1878'> +7.3793085e+04 </wgt>
<wgt id='1879'> +7.3986796e+04 </wgt>
<wgt id='1880'> +7.4117284e+04 </wgt>
<wgt id='1881'> +7.4110150e+04 </wgt>
<wgt id='1882'> +7.4015254e+04 </wgt>
<wgt id='1883'> +7.3905629e+04 </wgt>
<wgt id='1884'> +7.4133176e+04 </wgt>
<wgt id='1885'> +7.3694532e+04 </wgt>
<wgt id='1886'> +8.0000988e+04 </wgt>
<wgt id='1887'> +8.4793685e+04 </wgt>
<wgt id='1888'> +7.1738888e+04 </wgt>
<wgt id='1889'> +7.7112108e+04 </wgt>
</rwgt>
</event>
<event npLO=" -1 " npNLO=" 0 ">
 5      0 -7.4519530e+04 2.04868360e+01 7.55820760e-03 1.20721500e-01
        2 -1    0    0  501    0 +0.0000000000e+00 +0.0000000000e+00 +2.6900006873e+00 2.6900006873e+00 0.0000000000e+00 0.0000e+00 -1.0000e+00
       -1 -1    0    0    0  501 +0.0000000000e+00 +0.0000000000e+00 -5.7367064613e+02 5.7367064613e+02 0.0000000000e+00 0.0000e+00 1.0000e+00
       24  2    1    2    0    0 +0.0000000000e+00 +0.0000000000e+00 -5.7098064545e+02 5.7636064682e+02 7.8566517866e+01 0.0000e+00 0.0000e+00
      -11  1    3    3    0    0 +3.5211364138e+01 -1.7393057808e+01 -2.9211631308e+02 2.9474446389e+02 0.0000000000e+00 0.0000e+00 1.0000e+00
       12  1    3    3    0    0 -3.5211364138e+01 +1.7393057808e+01 -2.7886433237e+02 2.8161618294e+02 0.0000000000e+00 0.0000e+00 -1.0000e+00
#aMCatNLO 1  0  0  1  1 0.55286698E-01 0.00000000E+00 -9  5  0 0.00000000E+00 0.00000000E+00 0.00000000E+00 0.00000000E+00 0.00000000E+00
<rwgt>
<wgt id='1001'> -7.4519530e+04 </wgt>
<wgt id='1002'> -6.6046347e+04 </wgt>
<wgt id='1003'> -8.5086783e+04 </wgt>
<wgt id='1004'> -9.2953245e+04 </wgt>
<wgt id='1005'> -8.2579128e+04 </wgt>
<wgt id='1006'> -1.0589044e+05 </wgt>
<wgt id='1007'> -5.6300736e+04 </wgt>
<wgt id='1008'> -4.9721802e+04 </wgt>
<wgt id='1009'> -6.4505094e+04 </wgt>
<wgt id='1010'> -7.4519530e+04 </wgt>
<wgt id='1011'> -7.4716698e+04 </wgt>
<wgt id='1012'> -7.4462310e+04 </wgt>
<wgt id='1013'> -7.4574186e+04 </wgt>
<wgt id='1014'> -7.4408878e+04 </wgt>
<wgt id='1015'> -7.4125850e+04 </wgt>
<wgt id='1016'> -7.4011138e+04 </wgt>
<wgt id='1017'> -7.4017717e+04 </wgt>
<wgt id='1018'> -7.3634198e+04 </wgt>
<wgt id='1019'> -7.5120302e+04 </wgt>
<wgt id='1020'> -7.4866313e+04 </wgt>
<wgt id='1021'> -7.5116691e+04 </wgt>
<wgt id='1022'> -7.4447382e+04 </wgt>
<wgt id='1023'> -7.4679980e+04 </wgt>
<wgt id='1024'> -7.3822023e+04 </wgt>
<wgt id='1025'> -7.5151614e+04 </wgt>
<wgt id='1026'> -7.4416189e+04 </wgt>
<wgt id='1027'> -7.4126842e+04 </wgt>
<wgt id='1028'> -7.4274583e+04 </wgt>
<wgt id='1029'> -7.4635787e+04 </wgt>
<wgt id='1030'> -7.4296479e+04 </wgt>
<wgt id='1031'> -7.4100977e+04 </wgt>
<wgt id='1032'> -7.4671408e+04 </wgt>
<wgt id='1033'> -7.4550134e+04 </wgt>
<wgt id='1034'> -7.3840403e+04 </wgt>
<wgt id='1035'> -7.4563654e+04 </wgt>
<wgt id='1036'> -7.4698495e+04 </wgt>
<wgt id='1037'> -7.5260404e+04 </wgt>
<wgt id='1038'> -7.4249233e+04 </wgt>
<wgt id='1039'> -7.5426500e+04 </wgt>
<wgt id='1040'> -7.5019375e+04 </wgt>
<wgt id='1041'> -7.4793161e+04 </wgt>
<wgt id='1042'> -7.3755404e+04 </wgt>
<wgt id='1043'> -7.4611458e+04 </wgt>
<wgt id='1044'> -7.4723339e+04 </wgt>
<wgt id='1045'> -7.4728218e+04 </wgt>
<wgt id='1046'> -7.4373888e+04 </wgt>
<wgt id='1047'> -7.4625760e+04 </wgt>
<wgt id='1048'> -7.4853645e+04 </wgt>
<wgt id='1049'> -7.4399837e+04 </wgt>
<wgt id='1050'> -7.4454865e+04 </wgt>
<wgt id='1051'> -7.4420509e+04 </wgt>
<wgt id='1052'> -7.4218124e+04 </wgt>
<wgt id='1053'> -7.4476834e+04 </wgt>
<wgt id='1054'> -7.4477870e+04 </wgt>
<wgt id='1055'> -7.5013189e+04 </wgt>
<wgt id='1056'> -7.4720651e+04 </wgt>
<wgt id='1057'> -7.4495267e+04 </wgt>
<wgt id='1058'> -7.4571165e+04 </wgt>
<wgt id='1059'> -7.4218668e+04 </wgt>
<wgt id='1060'> -7.4560595e+04 </wgt>
<wgt id='1061'> -7.4745477e+04 </wgt>
<wgt id='1062'> -7.4125691e+04 </wgt>
<wgt id='1063'> -7.4538666e+04 </wgt>
<wgt id='1064'> -7.4622956e+04 </wgt>
<wgt id='1065'> -7.4758070e+04 </wgt>
<wgt id='1066'> -7.4520883e+04 </wgt>
<wgt id='1067'> -7.4330509e+04 </wgt>
<wgt id='1068'> -7.4434197e+04 </wgt>
<wgt id='1069'> -7.4652085e+04 </wgt>
<wgt id='1070'> -7.4698639e+04 </wgt>
<wgt id='1071'> -7.4938590e+04 </wgt>
<wgt id='1072'> -7.4477543e+04 </wgt>
<wgt id='1073'> -7.4506894e+04 </wgt>
<wgt id='1074'> -7.4589439e+04 </wgt>
<wgt id='1075'> -7.4574366e+04 </wgt>
<wgt id='1076'> -7.5298743e+04 </wgt>
<wgt id='1077'> -7.4607995e+04 </wgt>
<wgt id='1078'> -7.4387528e+04 </wgt>
<wgt id='1079'> -7.4164878e+04 </wgt>
<wgt id='1080'> -7.4410531e+04 </wgt>
<wgt id='1081'> -7.4501880e+04 </wgt>
<wgt id='1082'> -7.4543676e+04 </wgt>
<wgt id='1083'> -7.4579770e+04 </wgt>
<wgt id='1084'> -7.4404807e+04 </wgt>
<wgt id='1085'> -7.4298293e+04 </wgt>
<wgt id='1086'> -7.4634866e+04 </wgt>
<wgt id='1087'> -7.4744605e+04 </wgt>
<wgt id='1088'> -7.4640981e+04 </wgt>
<wgt id='1089'> -7.4332556e+04 </wgt>
<wgt id='1090'> -7.4448037e+04 </wgt>
<wgt id='1091'> -7.4745146e+04 </wgt>
<wgt id='1092'> -7.4819915e+04 </wgt>
<wgt id='1093'> -7.4566361e+04 </wgt>
<wgt id='1094'> -7.4500142e+04 </wgt>
<wgt id='1095'> -7.4388827e+04 </wgt>
<wgt id='1096'> -7.4748614e+04 </wgt>
<wgt id='1097'> -7.4781431e+04 </wgt>
<wgt id='1098'> -7.4395297e+04 </wgt>
<wgt id='1099'> -7.4466400e+04 </wgt>
<wgt id='1100'> -7.4405011e+04 </wgt>
<wgt id='1101'> -7.4651812e+04 </wgt>
<wgt id='1102'> -7.4407598e+04 </wgt>
<wgt id='1103'> -7.4352230e+04 </wgt>
<wgt id='1104'> -7.4518054e+04 </wgt>
<wgt id='1105'> -7.4525075e+04 </wgt>
<wgt id='1106'> -7.4425389e+04 </wgt>
<wgt id='1107'> -7.4482294e+04 </wgt>
<wgt id='1108'> -7.4491442e+04 </wgt>
<wgt id='1109'> -7.4460327e+04 </wgt>
<wgt id='1110'> -7.4519816e+04 </wgt>
<wgt id='1111'> -7.5153600e+04 </wgt>
<wgt id='1112'> -7.4026852e+04 </wgt>
<wgt id='1113'> -7.4519816e+04 </wgt>
<wgt id='1114'> -8.0264384e+04 </wgt>
<wgt id='1115'> -7.6088971e+04 </wgt>
<wgt id='1116'> -8.0814773e+04 </wgt>
<wgt id='1117'> -7.8513467e+04 </wgt>
<wgt id='1118'> -7.3666222e+04 </wgt>
<wgt id='1119'> -7.1435038e+04 </wgt>
<wgt id='1120'> -7.4577153e+04 </wgt>
<wgt id='1121'> -7.3679726e+04 </wgt>
<wgt id='1122'> -7.0897816e+04 </wgt>
<wgt id='1123'> -7.2022124e+04 </wgt>
<wgt id='1124'> -7.2639645e+04 </wgt>
<wgt id='1125'> -7.2344054e+04 </wgt>
<wgt id='1126'> -7.7018161e+04 </wgt>
<wgt id='1127'> -7.5367902e+04 </wgt>
<wgt id='1128'> -7.3104298e+04 </wgt>
<wgt id='1129'> -7.3737713e+04 </wgt>
<wgt id='1130'> -7.4620856e+04 </wgt>
<wgt id='1131'> -7.4460591e+04 </wgt>
<wgt id='1132'> -7.7767376e+04 </wgt>
<wgt id='1133'> -7.3483970e+04 </wgt>
<wgt id='1134'> -7.5604691e+04 </wgt>
<wgt id='1135'> -8.0236856e+04 </wgt>
<wgt id='1136'> -7.4661269e+04 </wgt>
<wgt id='1137'> -7.6243227e+04 </wgt>
<wgt id='1138'> -7.0650329e+04 </wgt>
<wgt id='1139'> -7.6360776e+04 </wgt>
<wgt id='1140'> -7.8854677e+04 </wgt>
<wgt id='1141'> -7.5169408e+04 </wgt>
<wgt id='1142'> -7.1087168e+04 </wgt>
<wgt id='1143'> -7.2376145e+04 </wgt>
<wgt id='1144'> -7.5174748e+04 </wgt>
<wgt id='1145'> -7.3137543e+04 </wgt>
<wgt id='1146'> -7.8664287e+04 </wgt>
<wgt id='1147'> -7.4160171e+04 </wgt>
<wgt id='1148'> -7.4676122e+04 </wgt>
<wgt id='1149'> -7.4743856e+04 </wgt>
<wgt id='1150'> -7.5068894e+04 </wgt>
<wgt id='1151'> -7.1926798e+04 </wgt>
<wgt id='1152'> -7.3751283e+04 </wgt>
<wgt id='1153'> -7.5203057e+04 </wgt>
<wgt id='1154'> -7.6537819e+04 </wgt>
<wgt id='1155'> -7.5335351e+04 </wgt>
<wgt id='1156'> -8.0303114e+04 </wgt>
<wgt id='1157'> -7.2157683e+04 </wgt>
<wgt id='1158'> -7.4902061e+04 </wgt>
<wgt id='1159'> -7.4354464e+04 </wgt>
<wgt id='1160'> -7.5945593e+04 </wgt>
<wgt id='1161'> -7.6117782e+04 </wgt>
<wgt id='1162'> -7.1539401e+04 </wgt>
<wgt id='1163'> -7.2860387e+04 </wgt>
<wgt id='1164'> -7.4746334e+04 </wgt>
<wgt id='1165'> -7.2385485e+04 </wgt>
<wgt id='1166'> -7.1900002e+04 </wgt>
<wgt id='1167'> -7.6010880e+04 </wgt>
<wgt id='1168'> -7.8145025e+04 </wgt>
<wgt id='1169'> -7.5403679e+04 </wgt>
<wgt id='1170'> -7.6260821e+04 </wgt>
<wgt id='1171'> -7.4799874e+04 </wgt>
<wgt id='1172'> -6.7051011e+04 </wgt>
<wgt id='1173'> -7.5677835e+04 </wgt>
<wgt id='1174'> -7.5818107e+04 </wgt>
<wgt id='1175'> -7.7062808e+04 </wgt>
<wgt id='1176'> -7.4899104e+04 </wgt>
<wgt id='1177'> -7.5380214e+04 </wgt>
<wgt id='1178'> -7.3914493e+04 </wgt>
<wgt id='1179'> -7.1997319e+04 </wgt>
<wgt id='1180'> -8.0810127e+04 </wgt>
<wgt id='1181'> -7.6484177e+04 </wgt>
<wgt id='1182'> -7.2036318e+04 </wgt>
<wgt id='1183'> -7.5871053e+04 </wgt>
<wgt id='1184'> -7.5814149e+04 </wgt>
<wgt id='1185'> -7.5683536e+04 </wgt>
<wgt id='1186'> -6.8205153e+04 </wgt>
<wgt id='1187'> -7.0800236e+04 </wgt>
<wgt id='1188'> -7.3854999e+04 </wgt>
<wgt id='1189'> -7.7140169e+04 </wgt>
<wgt id='1190'> -7.4554611e+04 </wgt>
<wgt id='1191'> -7.0872309e+04 </wgt>
<wgt id='1192'> -7.3650619e+04 </wgt>
<wgt id='1193'> -7.6551602e+04 </wgt>
<wgt id='1194'> -7.7704760e+04 </wgt>
<wgt id='1195'> -7.3737713e+04 </wgt>
<wgt id='1196'> -7.0613335e+04 </wgt>
<wgt id='1197'> -7.5016501e+04 </wgt>
<wgt id='1198'> -7.3297622e+04 </wgt>
<wgt id='1199'> -7.9132294e+04 </wgt>
<wgt id='1200'> -7.1715928e+04 </wgt>
<wgt id='1201'> -7.4551261e+04 </wgt>
<wgt id='1202'> -6.3953807e+04 </wgt>
<wgt id='1203'> -7.0508444e+04 </wgt>
<wgt id='1204'> -7.2105118e+04 </wgt>
<wgt id='1205'> -6.5051325e+04 </wgt>
<wgt id='1206'> -7.3664881e+04 </wgt>
<wgt id='1207'> -7.2861629e+04 </wgt>
<wgt id='1208'> -7.5731076e+04 </wgt>
<wgt id='1209'> -7.3260277e+04 </wgt>
<wgt id='1210'> -7.8434895e+04 </wgt>
<wgt id='1211'> -7.7480706e+04 </wgt>
<wgt id='1212'> -8.0099025e+04 </wgt>
<wgt id='1213'> -7.3926992e+04 </wgt>
<wgt id='1214'> -7.4637092e+04 </wgt>
<wgt id='1215'> -7.6693874e+04 </wgt>
<wgt id='1216'> -7.6614561e+04 </wgt>
<wgt id='1217'> -7.5435673e+04 </wgt>
<wgt id='1218'> -7.5132191e+04 </wgt>
<wgt id='1219'> -7.4037296e+04 </wgt>
<wgt id='1220'> -7.4337541e+04 </wgt>
<wgt id='1221'> -7.3582292e+04 </wgt>
<wgt id='1222'> -7.3410642e+04 </wgt>
<wgt id='1223'> -7.8891490e+04 </wgt>
<wgt id='1224'> -7.8834788e+04 </wgt>
<wgt id='1225'> -7.8868408e+04 </wgt>
<wgt id='1226'> -7.8580805e+04 </wgt>
<wgt id='1227'> -7.8666466e+04 </wgt>
<wgt id='1228'> -7.8192416e+04 </wgt>
<wgt id='1229'> -7.8913075e+04 </wgt>
<wgt id='1230'> -7.8201835e+04 </wgt>
<wgt id='1231'> -7.8683653e+04 </wgt>
<wgt id='1232'> -7.8433874e+04 </wgt>
<wgt id='1233'> -7.8552222e+04 </wgt>
<wgt id='1234'> -7.9167175e+04 </wgt>
<wgt id='1235'> -7.8780264e+04 </wgt>
<wgt id='1236'> -7.8725898e+04 </wgt>
<wgt id='1237'> -7.9288033e+04 </wgt>
<wgt id='1238'> -7.8694668e+04 </wgt>
<wgt id='1239'> -7.8915090e+04 </wgt>
<wgt id='1240'> -7.8738119e+04 </wgt>
<wgt id='1241'> -7.8539448e+04 </wgt>
<wgt id='1242'> -7.8610311e+04 </wgt>
<wgt id='1243'> -7.8867899e+04 </wgt>
<wgt id='1244'> -7.9221859e+04 </wgt>
<wgt id='1245'> -7.8849295e+04 </wgt>
<wgt id='1246'> -7.9201149e+04 </wgt>
<wgt id='1247'> -7.8976173e+04 </wgt>
<wgt id='1248'> -7.8775801e+04 </wgt>
<wgt id='1249'> -7.8731784e+04 </wgt>
<wgt id='1250'> -7.9178927e+04 </wgt>
<wgt id='1251'> -7.8906585e+04 </wgt>
<wgt id='1252'> -7.9143333e+04 </wgt>
<wgt id='1253'> -7.9430192e+04 </wgt>
<wgt id='1254'> -7.9248582e+04 </wgt>
<wgt id='1255'> -7.8267050e+04 </wgt>
<wgt id='1256'> -7.8913550e+04 </wgt>
<wgt id='1257'> -7.8940412e+04 </wgt>
<wgt id='1258'> -7.8220245e+04 </wgt>
<wgt id='1259'> -7.8151575e+04 </wgt>
<wgt id='1260'> -7.8833122e+04 </wgt>
<wgt id='1261'> -7.8344078e+04 </wgt>
<wgt id='1262'> -7.8710374e+04 </wgt>
<wgt id='1263'> -7.8815117e+04 </wgt>
<wgt id='1264'> -7.8023733e+04 </wgt>
<wgt id='1265'> -7.8771806e+04 </wgt>
<wgt id='1266'> -7.9567423e+04 </wgt>
<wgt id='1267'> -7.8497911e+04 </wgt>
<wgt id='1268'> -7.8765116e+04 </wgt>
<wgt id='1269'> -7.8652656e+04 </wgt>
<wgt id='1270'> -7.9186116e+04 </wgt>
<wgt id='1271'> -7.9052612e+04 </wgt>
<wgt id='1272'> -7.8916849e+04 </wgt>
<wgt id='1273'> -7.9372906e+04 </wgt>
<wgt id='1274'> -7.9198532e+04 </wgt>
<wgt id='1275'> -7.8873689e+04 </wgt>
<wgt id='1276'> -7.8626821e+04 </wgt>
<wgt id='1277'> -7.8891037e+04 </wgt>
<wgt id='1278'> -7.8986633e+04 </wgt>
<wgt id='1279'> -7.8774432e+04 </wgt>
<wgt id='1280'> -7.8619195e+04 </wgt>
<wgt id='1281'> -7.8176893e+04 </wgt>
<wgt id='1282'> -7.8776302e+04 </wgt>
<wgt id='1283'> -7.8910191e+04 </wgt>
<wgt id='1284'> -7.9078848e+04 </wgt>
<wgt id='1285'> -7.9200806e+04 </wgt>
<wgt id='1286'> -7.9165386e+04 </wgt>
<wgt id='1287'> -7.9070696e+04 </wgt>
<wgt id='1288'> -7.8943379e+04 </wgt>
<wgt id='1289'> -7.9050179e+04 </wgt>
<wgt id='1290'> -7.9222225e+04 </wgt>
<wgt id='1291'> -7.9044992e+04 </wgt>
<wgt id='1292'> -7.8987182e+04 </wgt>
<wgt id='1293'> -7.9126631e+04 </wgt>
<wgt id='1294'> -7.8766684e+04 </wgt>
<wgt id='1295'> -7.9196749e+04 </wgt>
<wgt id='1296'> -7.8774714e+04 </wgt>
<wgt id='1297'> -7.8737587e+04 </wgt>
<wgt id='1298'> -7.8627945e+04 </wgt>
<wgt id='1299'> -7.8903774e+04 </wgt>
<wgt id='1300'> -7.8750555e+04 </wgt>
<wgt id='1301'> -7.8913417e+04 </wgt>
<wgt id='1302'> -7.8712657e+04 </wgt>
<wgt id='1303'> -7.8763247e+04 </wgt>
<wgt id='1304'> -7.8936069e+04 </wgt>
<wgt id='1305'> -7.9000612e+04 </wgt>
<wgt id='1306'> -7.8885440e+04 </wgt>
<wgt id='1307'> -7.8688838e+04 </wgt>
<wgt id='1308'> -7.8867745e+04 </wgt>
<wgt id='1309'> -7.8818258e+04 </wgt>
<wgt id='1310'> -7.9009666e+04 </wgt>
<wgt id='1311'> -7.8949644e+04 </wgt>
<wgt id='1312'> -7.9332960e+04 </wgt>
<wgt id='1313'> -7.8800045e+04 </wgt>
<wgt id='1314'> -7.9054102e+04 </wgt>
<wgt id='1315'> -7.8915554e+04 </wgt>
<wgt id='1316'> -7.8571419e+04 </wgt>
<wgt id='1317'> -7.8793851e+04 </wgt>
<wgt id='1318'> -7.9120353e+04 </wgt>
<wgt id='1319'> -7.8728856e+04 </wgt>
<wgt id='1320'> -7.8739313e+04 </wgt>
<wgt id='1321'> -7.8881741e+04 </wgt>
<wgt id='1322'> -7.9066792e+04 </wgt>
<wgt id='1323'> -7.9027558e+04 </wgt>
<wgt id='1324'> -7.9801090e+04 </wgt>
<wgt id='1325'> -7.8714958e+04 </wgt>
<wgt id='1326'> -7.0450729e+04 </wgt>
<wgt id='1327'> -7.4589204e+04 </wgt>
<wgt id='1328'> -7.5752748e+04 </wgt>
<wgt id='1329'> -7.5834001e+04 </wgt>
<wgt id='1330'> -7.7558261e+04 </wgt>
<wgt id='1331'> -7.3637195e+04 </wgt>
<wgt id='1332'> -8.0057577e+04 </wgt>
<wgt id='1333'> -7.8904219e+04 </wgt>
<wgt id='1334'> -7.4857915e+04 </wgt>
<wgt id='1335'> -7.6969093e+04 </wgt>
<wgt id='1336'> -7.8363952e+04 </wgt>
<wgt id='1337'> -7.5444639e+04 </wgt>
<wgt id='1338'> -7.2489506e+04 </wgt>
<wgt id='1339'> -7.3690011e+04 </wgt>
<wgt id='1340'> -7.7157543e+04 </wgt>
<wgt id='1341'> -7.6663985e+04 </wgt>
<wgt id='1342'> -7.6587108e+04 </wgt>
<wgt id='1343'> -7.4430871e+04 </wgt>
<wgt id='1344'> -7.9265853e+04 </wgt>
<wgt id='1345'> -7.0536518e+04 </wgt>
<wgt id='1346'> -7.3390668e+04 </wgt>
<wgt id='1347'> -7.3461220e+04 </wgt>
<wgt id='1348'> -7.6847101e+04 </wgt>
<wgt id='1349'> -7.8052241e+04 </wgt>
<wgt id='1350'> -7.6864352e+04 </wgt>
<wgt id='1351'> -7.4707148e+04 </wgt>
<wgt id='1352'> -7.4331949e+04 </wgt>
<wgt id='1353'> -7.6243652e+04 </wgt>
<wgt id='1354'> -7.1735765e+04 </wgt>
<wgt id='1355'> -7.8090080e+04 </wgt>
<wgt id='1356'> -7.8862749e+04 </wgt>
<wgt id='1357'> -7.5451459e+04 </wgt>
<wgt id='1358'> -7.3952029e+04 </wgt>
<wgt id='1359'> -7.5116956e+04 </wgt>
<wgt id='1360'> -7.4286941e+04 </wgt>
<wgt id='1361'> -7.7091360e+04 </wgt>
<wgt id='1362'> -7.2613604e+04 </wgt>
<wgt id='1363'> -7.7816074e+04 </wgt>
<wgt id='1364'> -7.5278527e+04 </wgt>
<wgt id='1365'> -7.5778952e+04 </wgt>
<wgt id='1366'> -7.7512328e+04 </wgt>
<wgt id='1367'> -7.5494724e+04 </wgt>
<wgt id='1368'> -7.3004898e+04 </wgt>
<wgt id='1369'> -7.7604391e+04 </wgt>
<wgt id='1370'> -7.4876794e+04 </wgt>
<wgt id='1371'> -7.7131244e+04 </wgt>
<wgt id='1372'> -7.7453244e+04 </wgt>
<wgt id='1373'> -7.2590276e+04 </wgt>
<wgt id='1374'> -7.8101717e+04 </wgt>
<wgt id='1375'> -7.4644075e+04 </wgt>
<wgt id='1376'> -7.3780373e+04 </wgt>
<wgt id='1377'> -7.7206107e+04 </wgt>
<wgt id='1378'> -7.6066413e+04 </wgt>
<wgt id='1379'> -7.4802100e+04 </wgt>
<wgt id='1380'> -7.7454716e+04 </wgt>
<wgt id='1381'> -7.3549322e+04 </wgt>
<wgt id='1382'> -7.5137310e+04 </wgt>
<wgt id='1383'> -7.5593699e+04 </wgt>
<wgt id='1384'> -7.6812941e+04 </wgt>
<wgt id='1385'> -7.8926729e+04 </wgt>
<wgt id='1386'> -7.4770614e+04 </wgt>
<wgt id='1387'> -8.0347992e+04 </wgt>
<wgt id='1388'> -7.6539314e+04 </wgt>
<wgt id='1389'> -7.8622924e+04 </wgt>
<wgt id='1390'> -7.5264874e+04 </wgt>
<wgt id='1391'> -7.1849356e+04 </wgt>
<wgt id='1392'> -7.3157662e+04 </wgt>
<wgt id='1393'> -8.0337547e+04 </wgt>
<wgt id='1394'> -7.5778952e+04 </wgt>
<wgt id='1395'> -7.4102141e+04 </wgt>
<wgt id='1396'> -7.9321094e+04 </wgt>
<wgt id='1397'> -7.8111921e+04 </wgt>
<wgt id='1398'> -7.0602338e+04 </wgt>
<wgt id='1399'> -7.1488682e+04 </wgt>
<wgt id='1400'> -7.2248201e+04 </wgt>
<wgt id='1401'> -7.4089428e+04 </wgt>
<wgt id='1402'> -7.5966771e+04 </wgt>
<wgt id='1403'> -7.5702502e+04 </wgt>
<wgt id='1404'> -7.4771559e+04 </wgt>
<wgt id='1405'> -8.0608665e+04 </wgt>
<wgt id='1406'> -7.8104300e+04 </wgt>
<wgt id='1407'> -7.5421524e+04 </wgt>
<wgt id='1408'> -7.6811048e+04 </wgt>
<wgt id='1409'> -7.6073660e+04 </wgt>
<wgt id='1410'> -7.7149275e+04 </wgt>
<wgt id='1411'> -7.1333524e+04 </wgt>
<wgt id='1412'> -7.5097420e+04 </wgt>
<wgt id='1413'> -7.7307481e+04 </wgt>
<wgt id='1414'> -7.3279949e+04 </wgt>
<wgt id='1415'> -7.6635271e+04 </wgt>
<wgt id='1416'> -7.4584336e+04 </wgt>
<wgt id='1417'> -7.5882124e+04 </wgt>
<wgt id='1418'> -7.6661749e+04 </wgt>
<wgt id='1419'> -7.5122601e+04 </wgt>
<wgt id='1420'> -7.8101784e+04 </wgt>
<wgt id='1421'> -7.4789951e+04 </wgt>
<wgt id='1422'> -7.5251375e+04 </wgt>
<wgt id='1423'> -7.5185642e+04 </wgt>
<wgt id='1424'> -7.3026679e+04 </wgt>
<wgt id='1425'> -7.8960074e+04 </wgt>
<wgt id='1426'> -7.6464509e+04 </wgt>
<wgt id='1427'> -7.3426572e+04 </wgt>
<wgt id='1428'> -7.6306010e+04 </wgt>
<wgt id='1429'> -7.7116427e+04 </wgt>
<wgt id='1430'> -7.5350458e+04 </wgt>
<wgt id='1431'> -7.5950565e+04 </wgt>
<wgt id='1432'> -7.5780545e+04 </wgt>
<wgt id='1433'> -7.6315563e+04 </wgt>
<wgt id='1434'> -7.6233914e+04 </wgt>
<wgt id='1435'> -7.6148472e+04 </wgt>
<wgt id='1436'> -7.5715343e+04 </wgt>
<wgt id='1437'> -7.6063952e+04 </wgt>
<wgt id='1438'> -7.5594836e+04 </wgt>
<wgt id='1439'> -7.6189923e+04 </wgt>
<wgt id='1440'> -7.6008436e+04 </wgt>
<wgt id='1441'> -7.5970281e+04 </wgt>
<wgt id='1442'> -7.5306562e+04 </wgt>
<wgt id='1443'> -7.5536864e+04 </wgt>
<wgt id='1444'> -7.6480522e+04 </wgt>
<wgt id='1445'> -7.5771439e+04 </wgt>
<wgt id='1446'> -7.6080164e+04 </wgt>
<wgt id='1447'> -7.6962430e+04 </wgt>
<wgt id='1448'> -7.6593629e+04 </wgt>
<wgt id='1449'> -7.5530028e+04 </wgt>
<wgt id='1450'> -7.6719691e+04 </wgt>
<wgt id='1451'> -7.5554176e+04 </wgt>
<wgt id='1452'> -7.5997640e+04 </wgt>
<wgt id='1453'> -7.5477294e+04 </wgt>
<wgt id='1454'> -7.6230193e+04 </wgt>
<wgt id='1455'> -7.6449165e+04 </wgt>
<wgt id='1456'> -7.6127315e+04 </wgt>
<wgt id='1457'> -7.5798417e+04 </wgt>
<wgt id='1458'> -7.5380300e+04 </wgt>
<wgt id='1459'> -7.6088955e+04 </wgt>
<wgt id='1460'> -7.5829160e+04 </wgt>
<wgt id='1461'> -7.6370991e+04 </wgt>
<wgt id='1462'> -7.5990332e+04 </wgt>
<wgt id='1463'> -7.6012671e+04 </wgt>
<wgt id='1464'> -7.5927405e+04 </wgt>
<wgt id='1465'> -7.5969914e+04 </wgt>
<wgt id='1466'> -7.5967494e+04 </wgt>
<wgt id='1467'> -7.5868975e+04 </wgt>
<wgt id='1468'> -7.6010471e+04 </wgt>
<wgt id='1469'> -7.5821409e+04 </wgt>
<wgt id='1470'> -7.5754864e+04 </wgt>
<wgt id='1471'> -7.5744291e+04 </wgt>
<wgt id='1472'> -7.5956612e+04 </wgt>
<wgt id='1473'> -7.5937257e+04 </wgt>
<wgt id='1474'> -7.6001908e+04 </wgt>
<wgt id='1475'> -7.5874541e+04 </wgt>
<wgt id='1476'> -7.5825495e+04 </wgt>
<wgt id='1477'> -7.6039693e+04 </wgt>
<wgt id='1478'> -7.6018341e+04 </wgt>
<wgt id='1479'> -7.5885288e+04 </wgt>
<wgt id='1480'> -7.5966633e+04 </wgt>
<wgt id='1481'> -7.5858388e+04 </wgt>
<wgt id='1482'> -7.7116427e+04 </wgt>
<wgt id='1483'> -7.5350458e+04 </wgt>
<wgt id='1484'> -7.0888220e+04 </wgt>
<wgt id='1485'> -6.7848338e+04 </wgt>
<wgt id='1486'> -7.3339650e+04 </wgt>
<wgt id='1487'> -7.3980638e+04 </wgt>
<wgt id='1488'> -6.9872680e+04 </wgt>
<wgt id='1489'> -6.7715510e+04 </wgt>
<wgt id='1490'> -7.6006456e+04 </wgt>
<wgt id='1491'> -7.2325151e+04 </wgt>
<wgt id='1492'> -6.8828089e+04 </wgt>
<wgt id='1493'> -6.9393165e+04 </wgt>
<wgt id='1494'> -7.1872358e+04 </wgt>
<wgt id='1495'> -6.9949835e+04 </wgt>
<wgt id='1496'> -6.7801392e+04 </wgt>
<wgt id='1497'> -7.1955990e+04 </wgt>
<wgt id='1498'> -7.0985472e+04 </wgt>
<wgt id='1499'> -6.9887703e+04 </wgt>
<wgt id='1500'> -7.5930738e+04 </wgt>
<wgt id='1501'> -7.3387943e+04 </wgt>
<wgt id='1502'> -6.9880376e+04 </wgt>
<wgt id='1503'> -7.0830966e+04 </wgt>
<wgt id='1504'> -7.2803410e+04 </wgt>
<wgt id='1505'> -7.1572529e+04 </wgt>
<wgt id='1506'> -7.0573585e+04 </wgt>
<wgt id='1507'> -6.9323586e+04 </wgt>
<wgt id='1508'> -7.1000373e+04 </wgt>
<wgt id='1509'> -7.2385797e+04 </wgt>
<wgt id='1510'> -6.9559381e+04 </wgt>
<wgt id='1511'> -7.4481367e+04 </wgt>
<wgt id='1512'> -7.2993908e+04 </wgt>
<wgt id='1513'> -7.2553112e+04 </wgt>
<wgt id='1514'> -6.4999722e+04 </wgt>
<wgt id='1515'> -7.1860789e+04 </wgt>
<wgt id='1516'> -7.2584200e+04 </wgt>
<wgt id='1517'> -7.2501902e+04 </wgt>
<wgt id='1518'> -7.0514186e+04 </wgt>
<wgt id='1519'> -6.8180243e+04 </wgt>
<wgt id='1520'> -7.2062512e+04 </wgt>
<wgt id='1521'> -7.4054599e+04 </wgt>
<wgt id='1522'> -7.2299007e+04 </wgt>
<wgt id='1523'> -6.9310498e+04 </wgt>
<wgt id='1524'> -7.2287482e+04 </wgt>
<wgt id='1525'> -7.1538417e+04 </wgt>
<wgt id='1526'> -7.3662458e+04 </wgt>
<wgt id='1527'> -7.2879719e+04 </wgt>
<wgt id='1528'> -6.9752529e+04 </wgt>
<wgt id='1529'> -6.9506596e+04 </wgt>
<wgt id='1530'> -6.9356305e+04 </wgt>
<wgt id='1531'> -6.7737304e+04 </wgt>
<wgt id='1532'> -7.2063897e+04 </wgt>
<wgt id='1533'> -7.3795891e+04 </wgt>
<wgt id='1534'> -6.9980586e+04 </wgt>
<wgt id='1535'> -6.9647536e+04 </wgt>
<wgt id='1536'> -7.2483616e+04 </wgt>
<wgt id='1537'> -7.2761658e+04 </wgt>
<wgt id='1538'> -6.4681257e+04 </wgt>
<wgt id='1539'> -6.8100072e+04 </wgt>
<wgt id='1540'> -6.9323605e+04 </wgt>
<wgt id='1541'> -6.9431530e+04 </wgt>
<wgt id='1542'> -7.1479788e+04 </wgt>
<wgt id='1543'> -6.9172397e+04 </wgt>
<wgt id='1544'> -6.9132238e+04 </wgt>
<wgt id='1545'> -7.2974060e+04 </wgt>
<wgt id='1546'> -7.1969955e+04 </wgt>
<wgt id='1547'> -6.9283688e+04 </wgt>
<wgt id='1548'> -7.1012566e+04 </wgt>
<wgt id='1549'> -6.8848963e+04 </wgt>
<wgt id='1550'> -6.8160753e+04 </wgt>
<wgt id='1551'> -7.2272012e+04 </wgt>
<wgt id='1552'> -7.1943535e+04 </wgt>
<wgt id='1553'> -7.0660902e+04 </wgt>
<wgt id='1554'> -7.6409657e+04 </wgt>
<wgt id='1555'> -6.9978969e+04 </wgt>
<wgt id='1556'> -6.7004897e+04 </wgt>
<wgt id='1557'> -7.0072880e+04 </wgt>
<wgt id='1558'> -7.1050967e+04 </wgt>
<wgt id='1559'> -6.9807871e+04 </wgt>
<wgt id='1560'> -7.1192490e+04 </wgt>
<wgt id='1561'> -6.9199181e+04 </wgt>
<wgt id='1562'> -6.9986240e+04 </wgt>
<wgt id='1563'> -7.0183980e+04 </wgt>
<wgt id='1564'> -7.3917453e+04 </wgt>
<wgt id='1565'> -7.3856653e+04 </wgt>
<wgt id='1566'> -7.0809341e+04 </wgt>
<wgt id='1567'> -7.2082926e+04 </wgt>
<wgt id='1568'> -7.1983581e+04 </wgt>
<wgt id='1569'> -7.0330835e+04 </wgt>
<wgt id='1570'> -7.3269256e+04 </wgt>
<wgt id='1571'> -6.7924947e+04 </wgt>
<wgt id='1572'> -7.0193773e+04 </wgt>
<wgt id='1573'> -7.1453531e+04 </wgt>
<wgt id='1574'> -7.0143917e+04 </wgt>
<wgt id='1575'> -6.9185063e+04 </wgt>
<wgt id='1576'> -7.1347289e+04 </wgt>
<wgt id='1577'> -6.8932412e+04 </wgt>
<wgt id='1578'> -7.1244278e+04 </wgt>
<wgt id='1579'> -6.9297518e+04 </wgt>
<wgt id='1580'> -7.0307657e+04 </wgt>
<wgt id='1581'> -7.1474685e+04 </wgt>
<wgt id='1582'> -7.0903262e+04 </wgt>
<wgt id='1583'> -7.0267092e+04 </wgt>
<wgt id='1584'> -7.1253021e+04 </wgt>
<wgt id='1585'> -8.0076058e+04 </wgt>
<wgt id='1586'> -1.2524501e+05 </wgt>
<wgt id='1587'> -7.7716392e+04 </wgt>
<wgt id='1588'> -7.7116427e+04 </wgt>
<wgt id='1589'> -7.6262483e+04 </wgt>
<wgt id='1590'> -7.6174928e+04 </wgt>
<wgt id='1591'> -7.5350458e+04 </wgt>
<wgt id='1592'> -7.5110656e+04 </wgt>
<wgt id='1593'> -6.7019670e+04 </wgt>
<wgt id='1594'> -6.5924457e+04 </wgt>
<wgt id='1595'> -6.6322791e+04 </wgt>
<wgt id='1596'> -6.6650403e+04 </wgt>
<wgt id='1597'> -6.7193899e+04 </wgt>
<wgt id='1598'> -6.5864908e+04 </wgt>
<wgt id='1599'> -6.8172042e+04 </wgt>
<wgt id='1600'> -6.7042455e+04 </wgt>
<wgt id='1601'> -6.6766800e+04 </wgt>
<wgt id='1602'> -6.5938495e+04 </wgt>
<wgt id='1603'> -6.8024520e+04 </wgt>
<wgt id='1604'> -6.6347892e+04 </wgt>
<wgt id='1605'> -6.8373561e+04 </wgt>
<wgt id='1606'> -6.6940485e+04 </wgt>
<wgt id='1607'> -6.6435736e+04 </wgt>
<wgt id='1608'> -6.8652645e+04 </wgt>
<wgt id='1609'> -6.4615549e+04 </wgt>
<wgt id='1610'> -6.8812171e+04 </wgt>
<wgt id='1611'> -6.5005081e+04 </wgt>
<wgt id='1612'> -6.7372618e+04 </wgt>
<wgt id='1613'> -6.5140023e+04 </wgt>
<wgt id='1614'> -6.7261544e+04 </wgt>
<wgt id='1615'> -6.6614587e+04 </wgt>
<wgt id='1616'> -6.7133937e+04 </wgt>
<wgt id='1617'> -6.6307998e+04 </wgt>
<wgt id='1618'> -6.5939898e+04 </wgt>
<wgt id='1619'> -6.9608578e+04 </wgt>
<wgt id='1620'> -6.4504421e+04 </wgt>
<wgt id='1621'> -6.8894947e+04 </wgt>
<wgt id='1622'> -6.5142901e+04 </wgt>
<wgt id='1623'> -6.7710114e+04 </wgt>
<wgt id='1624'> -6.5693839e+04 </wgt>
<wgt id='1625'> -6.8978606e+04 </wgt>
<wgt id='1626'> -6.5580580e+04 </wgt>
<wgt id='1627'> -6.8115204e+04 </wgt>
<wgt id='1628'> -6.3278985e+04 </wgt>
<wgt id='1629'> -6.9530026e+04 </wgt>
<wgt id='1630'> -6.7132093e+04 </wgt>
<wgt id='1631'> -6.6196637e+04 </wgt>
<wgt id='1632'> -6.4650813e+04 </wgt>
<wgt id='1633'> -6.9151743e+04 </wgt>
<wgt id='1634'> -6.7265708e+04 </wgt>
<wgt id='1635'> -6.6462774e+04 </wgt>
<wgt id='1636'> -6.8783805e+04 </wgt>
<wgt id='1637'> -6.5476025e+04 </wgt>
<wgt id='1638'> -6.8125187e+04 </wgt>
<wgt id='1639'> -6.6269655e+04 </wgt>
<wgt id='1640'> -6.6394100e+04 </wgt>
<wgt id='1641'> -6.6876127e+04 </wgt>
<wgt id='1642'> -6.6905175e+04 </wgt>
<wgt id='1643'> -6.6661921e+04 </wgt>
<wgt id='1644'> -6.7913256e+04 </wgt>
<wgt id='1645'> -6.5387139e+04 </wgt>
<wgt id='1646'> -6.6134470e+04 </wgt>
<wgt id='1647'> -6.8073444e+04 </wgt>
<wgt id='1648'> -6.5417544e+04 </wgt>
<wgt id='1649'> -6.6639648e+04 </wgt>
<wgt id='1650'> -6.7475394e+04 </wgt>
<wgt id='1651'> -6.6319143e+04 </wgt>
<wgt id='1652'> -6.8787628e+04 </wgt>
<wgt id='1653'> -6.7910037e+04 </wgt>
<wgt id='1654'> -6.6122263e+04 </wgt>
<wgt id='1655'> -6.5238221e+04 </wgt>
<wgt id='1656'> -6.8917515e+04 </wgt>
<wgt id='1657'> -6.7912352e+04 </wgt>
<wgt id='1658'> -6.8394502e+04 </wgt>
<wgt id='1659'> -7.0619050e+04 </wgt>
<wgt id='1660'> -6.7586127e+04 </wgt>
<wgt id='1661'> -6.8307563e+04 </wgt>
<wgt id='1662'> -6.8408050e+04 </wgt>
<wgt id='1663'> -6.8506629e+04 </wgt>
<wgt id='1664'> -6.7725650e+04 </wgt>
<wgt id='1665'> -6.9309779e+04 </wgt>
<wgt id='1666'> -6.8242373e+04 </wgt>
<wgt id='1667'> -6.9775683e+04 </wgt>
<wgt id='1668'> -6.8101844e+04 </wgt>
<wgt id='1669'> -6.7250871e+04 </wgt>
<wgt id='1670'> -7.0639532e+04 </wgt>
<wgt id='1671'> -6.9445549e+04 </wgt>
<wgt id='1672'> -6.7996307e+04 </wgt>
<wgt id='1673'> -6.6234468e+04 </wgt>
<wgt id='1674'> -7.0591117e+04 </wgt>
<wgt id='1675'> -6.8568018e+04 </wgt>
<wgt id='1676'> -6.8741517e+04 </wgt>
<wgt id='1677'> -6.8267575e+04 </wgt>
<wgt id='1678'> -6.9439360e+04 </wgt>
<wgt id='1679'> -6.5131513e+04 </wgt>
<wgt id='1680'> -7.2630184e+04 </wgt>
<wgt id='1681'> -6.8302271e+04 </wgt>
<wgt id='1682'> -6.8922762e+04 </wgt>
<wgt id='1683'> -6.6545294e+04 </wgt>
<wgt id='1684'> -7.0906011e+04 </wgt>
<wgt id='1685'> -6.9410179e+04 </wgt>
<wgt id='1686'> -6.7865056e+04 </wgt>
<wgt id='1687'> -6.7809696e+04 </wgt>
<wgt id='1688'> -6.9886473e+04 </wgt>
<wgt id='1689'> -6.8729002e+04 </wgt>
<wgt id='1690'> -6.9285253e+04 </wgt>
<wgt id='1691'> -6.9062600e+04 </wgt>
<wgt id='1692'> -6.8190019e+04 </wgt>
<wgt id='1693'> -6.8839407e+04 </wgt>
<wgt id='1694'> -6.9261154e+04 </wgt>
<wgt id='1695'> -6.7337518e+04 </wgt>
<wgt id='1696'> -6.9725790e+04 </wgt>
<wgt id='1697'> -6.8520210e+04 </wgt>
<wgt id='1698'> -6.8744759e+04 </wgt>
<wgt id='1699'> -6.7068594e+04 </wgt>
<wgt id='1700'> -7.1126036e+04 </wgt>
<wgt id='1701'> -6.9284219e+04 </wgt>
<wgt id='1702'> -6.8492546e+04 </wgt>
<wgt id='1703'> -7.0319335e+04 </wgt>
<wgt id='1704'> -6.7395593e+04 </wgt>
<wgt id='1705'> -6.6729624e+04 </wgt>
<wgt id='1706'> -7.1213012e+04 </wgt>
<wgt id='1707'> -6.8887370e+04 </wgt>
<wgt id='1708'> -6.8478777e+04 </wgt>
<wgt id='1709'> -6.8710298e+04 </wgt>
<wgt id='1710'> -6.8669463e+04 </wgt>
<wgt id='1711'> -6.8686434e+04 </wgt>
<wgt id='1712'> -6.8271051e+04 </wgt>
<wgt id='1713'> -6.8887052e+04 </wgt>
<wgt id='1714'> -6.8471082e+04 </wgt>
<wgt id='1715'> -6.5150893e+04 </wgt>
<wgt id='1716'> -6.9354446e+04 </wgt>
<wgt id='1717'> -7.2378333e+04 </wgt>
<wgt id='1718'> -7.1960626e+04 </wgt>
<wgt id='1719'> -7.2914989e+04 </wgt>
<wgt id='1720'> -7.2340226e+04 </wgt>
<wgt id='1721'> -7.2413107e+04 </wgt>
<wgt id='1722'> -7.2734291e+04 </wgt>
<wgt id='1723'> -7.1796881e+04 </wgt>
<wgt id='1724'> -7.2372398e+04 </wgt>
<wgt id='1725'> -7.2383151e+04 </wgt>
<wgt id='1726'> -7.2699829e+04 </wgt>
<wgt id='1727'> -7.2047372e+04 </wgt>
<wgt id='1728'> -7.1873013e+04 </wgt>
<wgt id='1729'> -7.2847941e+04 </wgt>
<wgt id='1730'> -7.1904641e+04 </wgt>
<wgt id='1731'> -7.2713199e+04 </wgt>
<wgt id='1732'> -7.2884636e+04 </wgt>
<wgt id='1733'> -7.2884636e+04 </wgt>
<wgt id='1734'> -7.2405192e+04 </wgt>
<wgt id='1735'> -7.2358737e+04 </wgt>
<wgt id='1736'> -7.2273603e+04 </wgt>
<wgt id='1737'> -7.2516256e+04 </wgt>
<wgt id='1738'> -7.1708608e+04 </wgt>
<wgt id='1739'> -7.3529690e+04 </wgt>
<wgt id='1740'> -7.2351563e+04 </wgt>
<wgt id='1741'> -7.2445928e+04 </wgt>
<wgt id='1742'> -7.2541765e+04 </wgt>
<wgt id='1743'> -7.2205480e+04 </wgt>
<wgt id='1744'> -7.2540877e+04 </wgt>
<wgt id='1745'> -7.1936465e+04 </wgt>
<wgt id='1746'> -7.1712479e+04 </wgt>
<wgt id='1747'> -7.2776513e+04 </wgt>
<wgt id='1748'> -7.3295113e+04 </wgt>
<wgt id='1749'> -6.9738766e+04 </wgt>
<wgt id='1750'> -7.2558953e+04 </wgt>
<wgt id='1751'> -7.2184467e+04 </wgt>
<wgt id='1752'> -7.2246484e+04 </wgt>
<wgt id='1753'> -7.2561595e+04 </wgt>
<wgt id='1754'> -7.1628816e+04 </wgt>
<wgt id='1755'> -7.2791752e+04 </wgt>
<wgt id='1756'> -7.2563705e+04 </wgt>
<wgt id='1757'> -7.1863813e+04 </wgt>
<wgt id='1758'> -7.1690435e+04 </wgt>
<wgt id='1759'> -7.2988765e+04 </wgt>
<wgt id='1760'> -7.1887553e+04 </wgt>
<wgt id='1761'> -7.2845899e+04 </wgt>
<wgt id='1762'> -7.2058982e+04 </wgt>
<wgt id='1763'> -7.3070284e+04 </wgt>
<wgt id='1764'> -7.2445299e+04 </wgt>
<wgt id='1765'> -7.1938485e+04 </wgt>
<wgt id='1766'> -7.2481638e+04 </wgt>
<wgt id='1767'> -7.2290388e+04 </wgt>
<wgt id='1768'> -7.1688449e+04 </wgt>
<wgt id='1769'> -7.3010937e+04 </wgt>
<wgt id='1770'> -7.2134730e+04 </wgt>
<wgt id='1771'> -7.2700389e+04 </wgt>
<wgt id='1772'> -7.2240655e+04 </wgt>
<wgt id='1773'> -7.2807783e+04 </wgt>
<wgt id='1774'> -7.1955056e+04 </wgt>
<wgt id='1775'> -7.2550443e+04 </wgt>
<wgt id='1776'> -7.2858511e+04 </wgt>
<wgt id='1777'> -7.2171996e+04 </wgt>
<wgt id='1778'> -7.1486053e+04 </wgt>
<wgt id='1779'> -7.2455922e+04 </wgt>
<wgt id='1780'> -7.2855607e+04 </wgt>
<wgt id='1781'> -7.2060450e+04 </wgt>
<wgt id='1782'> -7.2378333e+04 </wgt>
<wgt id='1783'> -7.2278789e+04 </wgt>
<wgt id='1784'> -7.0757535e+04 </wgt>
<wgt id='1785'> -7.1058951e+04 </wgt>
<wgt id='1786'> -7.2080749e+04 </wgt>
<wgt id='1787'> -7.0964748e+04 </wgt>
<wgt id='1788'> -6.8167861e+04 </wgt>
<wgt id='1789'> -7.0712174e+04 </wgt>
<wgt id='1790'> -7.1307202e+04 </wgt>
<wgt id='1791'> -7.0893470e+04 </wgt>
<wgt id='1792'> -7.0924530e+04 </wgt>
<wgt id='1793'> -7.0860584e+04 </wgt>
<wgt id='1794'> -7.0531544e+04 </wgt>
<wgt id='1795'> -7.1874556e+04 </wgt>
<wgt id='1796'> -7.1413417e+04 </wgt>
<wgt id='1797'> -7.1016907e+04 </wgt>
<wgt id='1798'> -7.0976670e+04 </wgt>
<wgt id='1799'> -7.1600081e+04 </wgt>
<wgt id='1800'> -7.1332370e+04 </wgt>
<wgt id='1801'> -7.0441960e+04 </wgt>
<wgt id='1802'> -7.1176255e+04 </wgt>
<wgt id='1803'> -6.9330756e+04 </wgt>
<wgt id='1804'> -7.0926622e+04 </wgt>
<wgt id='1805'> -7.0390940e+04 </wgt>
<wgt id='1806'> -7.0276669e+04 </wgt>
<wgt id='1807'> -7.0553808e+04 </wgt>
<wgt id='1808'> -7.0869942e+04 </wgt>
<wgt id='1809'> -7.1432030e+04 </wgt>
<wgt id='1810'> -7.0990063e+04 </wgt>
<wgt id='1811'> -7.0708569e+04 </wgt>
<wgt id='1812'> -7.0985377e+04 </wgt>
<wgt id='1813'> -7.1250300e+04 </wgt>
<wgt id='1814'> -7.0963536e+04 </wgt>
<wgt id='1815'> -7.0729335e+04 </wgt>
<wgt id='1816'> -7.1014057e+04 </wgt>
<wgt id='1817'> -7.0652615e+04 </wgt>
<wgt id='1818'> -7.0861340e+04 </wgt>
<wgt id='1819'> -7.0833547e+04 </wgt>
<wgt id='1820'> -7.0404105e+04 </wgt>
<wgt id='1821'> -7.0957477e+04 </wgt>
<wgt id='1822'> -7.2661328e+04 </wgt>
<wgt id='1823'> -7.0649799e+04 </wgt>
<wgt id='1824'> -7.0795712e+04 </wgt>
<wgt id='1825'> -7.1409262e+04 </wgt>
<wgt id='1826'> -7.0968716e+04 </wgt>
<wgt id='1827'> -4.5695681e+04 </wgt>
<wgt id='1828'> -4.5690349e+04 </wgt>
<wgt id='1829'> -4.5659061e+04 </wgt>
<wgt id='1830'> -4.5687186e+04 </wgt>
<wgt id='1831'> -4.5661637e+04 </wgt>
<wgt id='1832'> -4.5781242e+04 </wgt>
<wgt id='1833'> -4.5568531e+04 </wgt>
<wgt id='1834'> -4.5324089e+04 </wgt>
<wgt id='1835'> -4.6022512e+04 </wgt>
<wgt id='1836'> -4.5859130e+04 </wgt>
<wgt id='1837'> -4.5488243e+04 </wgt>
<wgt id='1838'> -4.5747141e+04 </wgt>
<wgt id='1839'> -4.5603315e+04 </wgt>
<wgt id='1840'> -4.5605875e+04 </wgt>
<wgt id='1841'> -4.5747618e+04 </wgt>
<wgt id='1842'> -4.5755671e+04 </wgt>
<wgt id='1843'> -4.5699163e+04 </wgt>
<wgt id='1844'> -4.5621599e+04 </wgt>
<wgt id='1845'> -4.5718341e+04 </wgt>
<wgt id='1846'> -4.5667168e+04 </wgt>
<wgt id='1847'> -4.5679629e+04 </wgt>
<wgt id='1848'> -4.6257270e+04 </wgt>
<wgt id='1849'> -4.5033256e+04 </wgt>
<wgt id='1850'> -4.7297738e+04 </wgt>
<wgt id='1851'> -4.4190773e+04 </wgt>
<wgt id='1852'> -4.9525092e+04 </wgt>
<wgt id='1853'> -4.2416078e+04 </wgt>
<wgt id='1854'> -4.8301425e+04 </wgt>
<wgt id='1855'> -4.3418412e+04 </wgt>
<wgt id='1856'> -7.1096256e+04 </wgt>
<wgt id='1857'> -7.1085555e+04 </wgt>
<wgt id='1858'> -7.1204272e+04 </wgt>
<wgt id='1859'> -7.0977950e+04 </wgt>
<wgt id='1860'> -7.1099584e+04 </wgt>
<wgt id='1861'> -7.1254515e+04 </wgt>
<wgt id='1862'> -7.0660933e+04 </wgt>
<wgt id='1863'> -7.1035611e+04 </wgt>
<wgt id='1864'> -7.1190781e+04 </wgt>
<wgt id='1865'> -7.0840479e+04 </wgt>
<wgt id='1866'> -7.1260176e+04 </wgt>
<wgt id='1867'> -7.1177959e+04 </wgt>
<wgt id='1868'> -7.1384174e+04 </wgt>
<wgt id='1869'> -7.1236611e+04 </wgt>
<wgt id='1870'> -7.1168023e+04 </wgt>
<wgt id='1871'> -7.1096236e+04 </wgt>
<wgt id='1872'> -7.0983823e+04 </wgt>
<wgt id='1873'> -7.1120924e+04 </wgt>
<wgt id='1874'> -7.0736863e+04 </wgt>
<wgt id='1875'> -7.0978988e+04 </wgt>
<wgt id='1876'> -7.1790925e+04 </wgt>
<wgt id='1877'> -7.1363732e+04 </wgt>
<wgt id='1878'> -7.0503569e+04 </wgt>
<wgt id='1879'> -7.0742197e+04 </wgt>
<wgt id='1880'> -7.1285505e+04 </wgt>
<wgt id='1881'> -7.1236872e+04 </wgt>
<wgt id='1882'> -7.1489651e+04 </wgt>
<wgt id='1883'> -7.0102145e+04 </wgt>
<wgt id='1884'> -7.2110881e+04 </wgt>
<wgt id='1885'> -7.0545231e+04 </wgt>
<wgt id='1886'> -1.3626599e+05 </wgt>
<wgt id='1887'> -1.4948896e+05 </wgt>
<wgt id='1888'> -1.1433102e+05 </wgt>
<wgt id='1889'> -1.2762504e+05 </wgt>
</rwgt>
</event>
<event npLO=" -1 " npNLO=" 0 ">
 5      1 +7.4519530e+04 2.66162370e+01 7.55820760e-03 1.19149250e-01
       -2 -1    0    0    0  501 +0.0000000000e+00 +0.0000000000e+00 +8.1483247647e+02 8.1483247647e+02 0.0000000000e+00 0.0000e+00 1.0000e+00
        1 -1    0    0  501    0 +0.0000000000e+00 +0.0000000000e+00 -2.1481669576e+00 2.1481669576e+00 0.0000000000e+00 0.0000e+00 -1.0000e+00
      -24  2    1    2    0    0 +0.0000000000e+00 +0.0000000000e+00 +8.1268430951e+02 8.1698064342e+02 8.3675473155e+01 0.0000e+00 0.0000e+00
       15  1    3    3    0    0 +8.5125316809e+00 -2.6805999782e+01 +1.0435677524e+02 1.0809495404e+02 1.7770000000e+00 0.0000e+00 -1.0000e+00
      -16  1    3    3    0    0 -8.5125316809e+00 +2.6805999782e+01 +7.0832753427e+02 7.0888568939e+02 0.0000000000e+00 0.0000e+00 1.0000e+00
#aMCatNLO 1  0  0  1  2 0.23053835E+02 0.00000000E+00 -9  5  0 0.00000000E+00 0.00000000E+00 0.00000000E+00 0.00000000E+00 0.00000000E+00
<rwgt>
<wgt id='1001'> +7.4519530e+04 </wgt>
<wgt id='1002'> +7.1671466e+04 </wgt>
<wgt id='1003'> +7.8062909e+04 </wgt>
<wgt id='1004'> +1.0089296e+05 </wgt>
<wgt id='1005'> +9.5887017e+04 </wgt>
<wgt id='1006'> +1.0712122e+05 </wgt>
<wgt id='1007'> +5.1534153e+04 </wgt>
<wgt id='1008'> +5.0467783e+04 </wgt>
<wgt id='1009'> +5.2860690e+04 </wgt>
<wgt id='1010'> +7.4519530e+04 </wgt>
<wgt id='1011'> +7.4523591e+04 </wgt>
<wgt id='1012'> +7.4704394e+04 </wgt>
<wgt id='1013'> +7.3960093e+04 </wgt>
<wgt id='1014'> +7.5299945e+04 </wgt>
<wgt id='1015'> +7.2465725e+04 </wgt>
<wgt id='1016'> +7.4470129e+04 </wgt>
<wgt id='1017'> +7.3724297e+04 </wgt>
<wgt id='1018'> +7.3448314e+04 </wgt>
<wgt id='1019'> +7.4921315e+04 </wgt>
<wgt id='1020'> +7.3725995e+04 </wgt>
<wgt id='1021'> +7.4986973e+04 </wgt>
<wgt id='1022'> +7.4686466e+04 </wgt>
<wgt id='1023'> +7.5552124e+04 </wgt>
<wgt id='1024'> +7.3514638e+04 </wgt>
<wgt id='1025'> +7.6114979e+04 </wgt>
<wgt id='1026'> +7.4431240e+04 </wgt>
<wgt id='1027'> +7.4337607e+04 </wgt>
<wgt id='1028'> +7.3959259e+04 </wgt>
<wgt id='1029'> +7.4556898e+04 </wgt>
<wgt id='1030'> +7.5080420e+04 </wgt>
<wgt id='1031'> +7.3876716e+04 </wgt>
<wgt id='1032'> +7.4320423e+04 </wgt>
<wgt id='1033'> +7.4895845e+04 </wgt>
<wgt id='1034'> +7.3905638e+04 </wgt>
<wgt id='1035'> +7.4707547e+04 </wgt>
<wgt id='1036'> +7.4567301e+04 </wgt>
<wgt id='1037'> +7.5732654e+04 </wgt>
<wgt id='1038'> +7.4345943e+04 </wgt>
<wgt id='1039'> +7.5023658e+04 </wgt>
<wgt id='1040'> +7.4739683e+04 </wgt>
<wgt id='1041'> +7.5404228e+04 </wgt>
<wgt id='1042'> +7.4216101e+04 </wgt>
<wgt id='1043'> +7.4153523e+04 </wgt>
<wgt id='1044'> +7.5012910e+04 </wgt>
<wgt id='1045'> +7.4214120e+04 </wgt>
<wgt id='1046'> +7.4793128e+04 </wgt>
<wgt id='1047'> +7.4601623e+04 </wgt>
<wgt id='1048'> +7.4132084e+04 </wgt>
<wgt id='1049'> +7.3946821e+04 </wgt>
<wgt id='1050'> +7.4618375e+04 </wgt>
<wgt id='1051'> +7.4435741e+04 </wgt>
<wgt id='1052'> +7.4791428e+04 </wgt>
<wgt id='1053'> +7.4900453e+04 </wgt>
<wgt id='1054'> +7.4050523e+04 </wgt>
<wgt id='1055'> +7.4739313e+04 </wgt>
<wgt id='1056'> +7.4426225e+04 </wgt>
<wgt id='1057'> +7.4259929e+04 </wgt>
<wgt id='1058'> +7.5121269e+04 </wgt>
<wgt id='1059'> +7.3886143e+04 </wgt>
<wgt id='1060'> +7.4858615e+04 </wgt>
<wgt id='1061'> +7.4685873e+04 </wgt>
<wgt id='1062'> +7.4021585e+04 </wgt>
<wgt id='1063'> +7.4381399e+04 </wgt>
<wgt id='1064'> +7.4766023e+04 </wgt>
<wgt id='1065'> +7.5007261e+04 </wgt>
<wgt id='1066'> +7.4624465e+04 </wgt>
<wgt id='1067'> +7.4727747e+04 </wgt>
<wgt id='1068'> +7.5040610e+04 </wgt>
<wgt id='1069'> +7.5049521e+04 </wgt>
<wgt id='1070'> +7.4868860e+04 </wgt>
<wgt id='1071'> +7.4791812e+04 </wgt>
<wgt id='1072'> +7.4699003e+04 </wgt>
<wgt id='1073'> +7.4189756e+04 </wgt>
<wgt id='1074'> +7.4677209e+04 </wgt>
<wgt id='1075'> +7.4657872e+04 </wgt>
<wgt id='1076'> +7.5041570e+04 </wgt>
<wgt id='1077'> +7.4675023e+04 </wgt>
<wgt id='1078'> +7.4900981e+04 </wgt>
<wgt id='1079'> +7.4245687e+04 </wgt>
<wgt id='1080'> +7.4546452e+04 </wgt>
<wgt id='1081'> +7.3943506e+04 </wgt>
<wgt id='1082'> +7.4451294e+04 </wgt>
<wgt id='1083'> +7.4501479e+04 </wgt>
<wgt id='1084'> +7.3840311e+04 </wgt>
<wgt id='1085'> +7.4071162e+04 </wgt>
<wgt id='1086'> +7.4551287e+04 </wgt>
<wgt id='1087'> +7.4767714e+04 </wgt>
<wgt id='1088'> +7.4807374e+04 </wgt>
<wgt id='1089'> +7.4333785e+04 </wgt>
<wgt id='1090'> +7.4663170e+04 </wgt>
<wgt id='1091'> +7.4408654e+04 </wgt>
<wgt id='1092'> +7.4980009e+04 </wgt>
<wgt id='1093'> +7.4341206e+04 </wgt>
<wgt id='1094'> +7.5255939e+04 </wgt>
<wgt id='1095'> +7.4655149e+04 </wgt>
<wgt id='1096'> +7.4572307e+04 </wgt>
<wgt id='1097'> +7.4371662e+04 </wgt>
<wgt id='1098'> +7.4472479e+04 </wgt>
<wgt id='1099'> +7.4664165e+04 </wgt>
<wgt id='1100'> +7.4120491e+04 </wgt>
<wgt id='1101'> +7.4425490e+04 </wgt>
<wgt id='1102'> +7.4051233e+04 </wgt>
<wgt id='1103'> +7.4559187e+04 </wgt>
<wgt id='1104'> +7.4774664e+04 </wgt>
<wgt id='1105'> +7.4421834e+04 </wgt>
<wgt id='1106'> +7.4699107e+04 </wgt>
<wgt id='1107'> +7.4687035e+04 </wgt>
<wgt id='1108'> +7.4344122e+04 </wgt>
<wgt id='1109'> +7.4895849e+04 </wgt>
<wgt id='1110'> +7.4519538e+04 </wgt>
<wgt id='1111'> +7.4385057e+04 </wgt>
<wgt id='1112'> +7.4420678e+04 </wgt>
<wgt id='1113'> +7.4519538e+04 </wgt>
<wgt id='1114'> +8.6428388e+04 </wgt>
<wgt id='1115'> +7.7426702e+04 </wgt>
<wgt id='1116'> +7.2681497e+04 </wgt>
<wgt id='1117'> +8.2858795e+04 </wgt>
<wgt id='1118'> +6.9590872e+04 </wgt>
<wgt id='1119'> +7.5358078e+04 </wgt>
<wgt id='1120'> +7.2485335e+04 </wgt>
<wgt id='1121'> +7.3110490e+04 </wgt>
<wgt id='1122'> +7.1500159e+04 </wgt>
<wgt id='1123'> +7.7232869e+04 </wgt>
<wgt id='1124'> +7.4501646e+04 </wgt>
<wgt id='1125'> +7.0926258e+04 </wgt>
<wgt id='1126'> +7.1981449e+04 </wgt>
<wgt id='1127'> +7.5709584e+04 </wgt>
<wgt id='1128'> +7.0973017e+04 </wgt>
<wgt id='1129'> +6.7988420e+04 </wgt>
<wgt id='1130'> +7.5497843e+04 </wgt>
<wgt id='1131'> +7.4558779e+04 </wgt>
<wgt id='1132'> +7.7993863e+04 </wgt>
<wgt id='1133'> +6.3980741e+04 </wgt>
<wgt id='1134'> +7.6946748e+04 </wgt>
<wgt id='1135'> +8.2609023e+04 </wgt>
<wgt id='1136'> +7.8558648e+04 </wgt>
<wgt id='1137'> +6.9076602e+04 </wgt>
<wgt id='1138'> +7.0432604e+04 </wgt>
<wgt id='1139'> +7.1512483e+04 </wgt>
<wgt id='1140'> +8.8026411e+04 </wgt>
<wgt id='1141'> +7.5318074e+04 </wgt>
<wgt id='1142'> +7.3408388e+04 </wgt>
<wgt id='1143'> +8.1016144e+04 </wgt>
<wgt id='1144'> +7.5779912e+04 </wgt>
<wgt id='1145'> +7.0803265e+04 </wgt>
<wgt id='1146'> +7.5099743e+04 </wgt>
<wgt id='1147'> +7.5667436e+04 </wgt>
<wgt id='1148'> +7.5251519e+04 </wgt>
<wgt id='1149'> +7.1064231e+04 </wgt>
<wgt id='1150'> +7.2939084e+04 </wgt>
<wgt id='1151'> +6.9761931e+04 </wgt>
<wgt id='1152'> +7.7643396e+04 </wgt>
<wgt id='1153'> +6.7502348e+04 </wgt>
<wgt id='1154'> +7.7189459e+04 </wgt>
<wgt id='1155'> +7.4178632e+04 </wgt>
<wgt id='1156'> +8.3433371e+04 </wgt>
<wgt id='1157'> +7.6366835e+04 </wgt>
<wgt id='1158'> +6.9206095e+04 </wgt>
<wgt id='1159'> +7.4362381e+04 </wgt>
<wgt id='1160'> +8.0748317e+04 </wgt>
<wgt id='1161'> +7.1480936e+04 </wgt>
<wgt id='1162'> +7.7906542e+04 </wgt>
<wgt id='1163'> +7.1215351e+04 </wgt>
<wgt id='1164'> +7.2277999e+04 </wgt>
<wgt id='1165'> +6.8967704e+04 </wgt>
<wgt id='1166'> +7.7297705e+04 </wgt>
<wgt id='1167'> +8.0924711e+04 </wgt>
<wgt id='1168'> +7.3720297e+04 </wgt>
<wgt id='1169'> +7.9872904e+04 </wgt>
<wgt id='1170'> +7.5843810e+04 </wgt>
<wgt id='1171'> +8.3008625e+04 </wgt>
<wgt id='1172'> +7.5095485e+04 </wgt>
<wgt id='1173'> +7.0745116e+04 </wgt>
<wgt id='1174'> +7.7634604e+04 </wgt>
<wgt id='1175'> +7.4484753e+04 </wgt>
<wgt id='1176'> +7.7702647e+04 </wgt>
<wgt id='1177'> +7.2358886e+04 </wgt>
<wgt id='1178'> +7.0023587e+04 </wgt>
<wgt id='1179'> +7.2546584e+04 </wgt>
<wgt id='1180'> +7.6117230e+04 </wgt>
<wgt id='1181'> +7.7957856e+04 </wgt>
<wgt id='1182'> +7.5097283e+04 </wgt>
<wgt id='1183'> +7.7568283e+04 </wgt>
<wgt id='1184'> +7.6800099e+04 </wgt>
<wgt id='1185'> +6.9463545e+04 </wgt>
<wgt id='1186'> +6.6105288e+04 </wgt>
<wgt id='1187'> +6.7189971e+04 </wgt>
<wgt id='1188'> +7.0694741e+04 </wgt>
<wgt id='1189'> +7.8909975e+04 </wgt>
<wgt id='1190'> +7.9812778e+04 </wgt>
<wgt id='1191'> +7.1342898e+04 </wgt>
<wgt id='1192'> +7.0270692e+04 </wgt>
<wgt id='1193'> +8.4218991e+04 </wgt>
<wgt id='1194'> +8.4171105e+04 </wgt>
<wgt id='1195'> +6.7988420e+04 </wgt>
<wgt id='1196'> +6.5461052e+04 </wgt>
<wgt id='1197'> +7.6244143e+04 </wgt>
<wgt id='1198'> +7.1683620e+04 </wgt>
<wgt id='1199'> +8.0568802e+04 </wgt>
<wgt id='1200'> +7.4381803e+04 </wgt>
<wgt id='1201'> +8.2127793e+04 </wgt>
<wgt id='1202'> +6.5478036e+04 </wgt>
<wgt id='1203'> +7.3884740e+04 </wgt>
<wgt id='1204'> +7.0871963e+04 </wgt>
<wgt id='1205'> +6.0918705e+04 </wgt>
<wgt id='1206'> +6.8372749e+04 </wgt>
<wgt id='1207'> +7.4016832e+04 </wgt>
<wgt id='1208'> +7.4250498e+04 </wgt>
<wgt id='1209'> +7.6999763e+04 </wgt>
<wgt id='1210'> +7.5584559e+04 </wgt>
<wgt id='1211'> +7.8171818e+04 </wgt>
<wgt id='1212'> +7.7829409e+04 </wgt>
<wgt id='1213'> +7.2719551e+04 </wgt>
<wgt id='1214'> +7.4453642e+04 </wgt>
<wgt id='1215'> +7.4165108e+04 </wgt>
<wgt id='1216'> +7.4436717e+04 </wgt>
<wgt id='1217'> +7.3437577e+04 </wgt>
<wgt id='1218'> +7.3869029e+04 </wgt>
<wgt id='1219'> +7.3607688e+04 </wgt>
<wgt id='1220'> +7.4750341e+04 </wgt>
<wgt id='1221'> +7.4907671e+04 </wgt>
<wgt id='1222'> +7.5219137e+04 </wgt>
<wgt id='1223'> +7.6496372e+04 </wgt>
<wgt id='1224'> +7.6217383e+04 </wgt>
<wgt id='1225'> +7.6916134e+04 </wgt>
<wgt id='1226'> +7.5822343e+04 </wgt>
<wgt id='1227'> +7.7492962e+04 </wgt>
<wgt id='1228'> +7.6177401e+04 </wgt>
<wgt id='1229'> +7.5801420e+04 </wgt>
<wgt id='1230'> +7.6457738e+04 </wgt>
<wgt id='1231'> +7.6909226e+04 </wgt>
<wgt id='1232'> +7.6647912e+04 </wgt>
<wgt id='1233'> +7.5719692e+04 </wgt>
<wgt id='1234'> +7.6387879e+04 </wgt>
<wgt id='1235'> +7.6889658e+04 </wgt>
<wgt id='1236'> +7.6949870e+04 </wgt>
<wgt id='1237'> +7.6637816e+04 </wgt>
<wgt id='1238'> +7.6437593e+04 </wgt>
<wgt id='1239'> +7.6940097e+04 </wgt>
<wgt id='1240'> +7.6409676e+04 </wgt>
<wgt id='1241'> +7.6845075e+04 </wgt>
<wgt id='1242'> +7.6598958e+04 </wgt>
<wgt id='1243'> +7.6786788e+04 </wgt>
<wgt id='1244'> +7.6698211e+04 </wgt>
<wgt id='1245'> +7.6466192e+04 </wgt>
<wgt id='1246'> +7.6242874e+04 </wgt>
<wgt id='1247'> +7.7178574e+04 </wgt>
<wgt id='1248'> +7.6416695e+04 </wgt>
<wgt id='1249'> +7.6351894e+04 </wgt>
<wgt id='1250'> +7.7011224e+04 </wgt>
<wgt id='1251'> +7.6416871e+04 </wgt>
<wgt id='1252'> +7.6772686e+04 </wgt>
<wgt id='1253'> +7.6560086e+04 </wgt>
<wgt id='1254'> +7.7168286e+04 </wgt>
<wgt id='1255'> +7.5755066e+04 </wgt>
<wgt id='1256'> +7.6358935e+04 </wgt>
<wgt id='1257'> +7.6376155e+04 </wgt>
<wgt id='1258'> +7.5590722e+04 </wgt>
<wgt id='1259'> +7.5466738e+04 </wgt>
<wgt id='1260'> +7.6600228e+04 </wgt>
<wgt id='1261'> +7.5843071e+04 </wgt>
<wgt id='1262'> +7.6317920e+04 </wgt>
<wgt id='1263'> +7.6334257e+04 </wgt>
<wgt id='1264'> +7.5797385e+04 </wgt>
<wgt id='1265'> +7.6069898e+04 </wgt>
<wgt id='1266'> +7.7194643e+04 </wgt>
<wgt id='1267'> +7.6104148e+04 </wgt>
<wgt id='1268'> +7.6093801e+04 </wgt>
<wgt id='1269'> +7.6185189e+04 </wgt>
<wgt id='1270'> +7.6697448e+04 </wgt>
<wgt id='1271'> +7.6488215e+04 </wgt>
<wgt id='1272'> +7.6311157e+04 </wgt>
<wgt id='1273'> +7.7176156e+04 </wgt>
<wgt id='1274'> +7.7078880e+04 </wgt>
<wgt id='1275'> +7.6582339e+04 </wgt>
<wgt id='1276'> +7.6498808e+04 </wgt>
<wgt id='1277'> +7.6444100e+04 </wgt>
<wgt id='1278'> +7.6355260e+04 </wgt>
<wgt id='1279'> +7.6127662e+04 </wgt>
<wgt id='1280'> +7.6022263e+04 </wgt>
<wgt id='1281'> +7.5805597e+04 </wgt>
<wgt id='1282'> +7.6752956e+04 </wgt>
<wgt id='1283'> +7.6976333e+04 </wgt>
<wgt id='1284'> +7.6500990e+04 </wgt>
<wgt id='1285'> +7.6496560e+04 </wgt>
<wgt id='1286'> +7.6853810e+04 </wgt>
<wgt id='1287'> +7.6653724e+04 </wgt>
<wgt id='1288'> +7.6333591e+04 </wgt>
<wgt id='1289'> +7.6797179e+04 </wgt>
<wgt id='1290'> +7.6491154e+04 </wgt>
<wgt id='1291'> +7.6655893e+04 </wgt>
<wgt id='1292'> +7.6290700e+04 </wgt>
<wgt id='1293'> +7.6047492e+04 </wgt>
<wgt id='1294'> +7.6495625e+04 </wgt>
<wgt id='1295'> +7.6540045e+04 </wgt>
<wgt id='1296'> +7.6077947e+04 </wgt>
<wgt id='1297'> +7.6408497e+04 </wgt>
<wgt id='1298'> +7.5996242e+04 </wgt>
<wgt id='1299'> +7.6547934e+04 </wgt>
<wgt id='1300'> +7.6200853e+04 </wgt>
<wgt id='1301'> +7.6191392e+04 </wgt>
<wgt id='1302'> +7.6360466e+04 </wgt>
<wgt id='1303'> +7.6370920e+04 </wgt>
<wgt id='1304'> +7.6277728e+04 </wgt>
<wgt id='1305'> +7.6618438e+04 </wgt>
<wgt id='1306'> +7.6616483e+04 </wgt>
<wgt id='1307'> +7.6138469e+04 </wgt>
<wgt id='1308'> +7.6801531e+04 </wgt>
<wgt id='1309'> +7.6420013e+04 </wgt>
<wgt id='1310'> +7.7012497e+04 </wgt>
<wgt id='1311'> +7.6408962e+04 </wgt>
<wgt id='1312'> +7.6053682e+04 </wgt>
<wgt id='1313'> +7.6221128e+04 </wgt>
<wgt id='1314'> +7.6829417e+04 </wgt>
<wgt id='1315'> +7.6579842e+04 </wgt>
<wgt id='1316'> +7.6130360e+04 </wgt>
<wgt id='1317'> +7.6729232e+04 </wgt>
<wgt id='1318'> +7.6865368e+04 </wgt>
<wgt id='1319'> +7.6269965e+04 </wgt>
<wgt id='1320'> +7.6318746e+04 </wgt>
<wgt id='1321'> +7.6477731e+04 </wgt>
<wgt id='1322'> +7.6699025e+04 </wgt>
<wgt id='1323'> +7.6422902e+04 </wgt>
<wgt id='1324'> +7.6596334e+04 </wgt>
<wgt id='1325'> +7.6764420e+04 </wgt>
<wgt id='1326'> +7.0958235e+04 </wgt>
<wgt id='1327'> +7.0775935e+04 </wgt>
<wgt id='1328'> +7.5001131e+04 </wgt>
<wgt id='1329'> +7.6427898e+04 </wgt>
<wgt id='1330'> +7.1429187e+04 </wgt>
<wgt id='1331'> +7.4429171e+04 </wgt>
<wgt id='1332'> +7.7123047e+04 </wgt>
<wgt id='1333'> +7.6276234e+04 </wgt>
<wgt id='1334'> +7.7227963e+04 </wgt>
<wgt id='1335'> +7.5298315e+04 </wgt>
<wgt id='1336'> +7.7970249e+04 </wgt>
<wgt id='1337'> +7.3258075e+04 </wgt>
<wgt id='1338'> +7.4898105e+04 </wgt>
<wgt id='1339'> +7.5586323e+04 </wgt>
<wgt id='1340'> +7.4814716e+04 </wgt>
<wgt id='1341'> +7.7373163e+04 </wgt>
<wgt id='1342'> +7.7491816e+04 </wgt>
<wgt id='1343'> +7.9441049e+04 </wgt>
<wgt id='1344'> +7.7392695e+04 </wgt>
<wgt id='1345'> +7.3387514e+04 </wgt>
<wgt id='1346'> +7.5614423e+04 </wgt>
<wgt id='1347'> +7.5204290e+04 </wgt>
<wgt id='1348'> +7.8669544e+04 </wgt>
<wgt id='1349'> +7.6040593e+04 </wgt>
<wgt id='1350'> +7.2337602e+04 </wgt>
<wgt id='1351'> +7.9488055e+04 </wgt>
<wgt id='1352'> +7.4257016e+04 </wgt>
<wgt id='1353'> +7.7135000e+04 </wgt>
<wgt id='1354'> +7.5763045e+04 </wgt>
<wgt id='1355'> +7.6043824e+04 </wgt>
<wgt id='1356'> +7.5067428e+04 </wgt>
<wgt id='1357'> +7.2144385e+04 </wgt>
<wgt id='1358'> +7.1219344e+04 </wgt>
<wgt id='1359'> +7.3869170e+04 </wgt>
<wgt id='1360'> +7.3901084e+04 </wgt>
<wgt id='1361'> +7.4151174e+04 </wgt>
<wgt id='1362'> +7.3789267e+04 </wgt>
<wgt id='1363'> +7.8593047e+04 </wgt>
<wgt id='1364'> +7.5847148e+04 </wgt>
<wgt id='1365'> +7.7250547e+04 </wgt>
<wgt id='1366'> +8.0205279e+04 </wgt>
<wgt id='1367'> +6.8468741e+04 </wgt>
<wgt id='1368'> +6.8654408e+04 </wgt>
<wgt id='1369'> +8.0479168e+04 </wgt>
<wgt id='1370'> +7.5540171e+04 </wgt>
<wgt id='1371'> +7.5432414e+04 </wgt>
<wgt id='1372'> +7.5092783e+04 </wgt>
<wgt id='1373'> +7.5026077e+04 </wgt>
<wgt id='1374'> +7.7035043e+04 </wgt>
<wgt id='1375'> +7.1863851e+04 </wgt>
<wgt id='1376'> +7.2375901e+04 </wgt>
<wgt id='1377'> +7.2013231e+04 </wgt>
<wgt id='1378'> +7.0900055e+04 </wgt>
<wgt id='1379'> +7.7718121e+04 </wgt>
<wgt id='1380'> +7.5417673e+04 </wgt>
<wgt id='1381'> +7.4606195e+04 </wgt>
<wgt id='1382'> +7.6583418e+04 </wgt>
<wgt id='1383'> +7.4511648e+04 </wgt>
<wgt id='1384'> +7.8236861e+04 </wgt>
<wgt id='1385'> +7.6881835e+04 </wgt>
<wgt id='1386'> +7.1415923e+04 </wgt>
<wgt id='1387'> +7.7330926e+04 </wgt>
<wgt id='1388'> +7.8041163e+04 </wgt>
<wgt id='1389'> +7.5052674e+04 </wgt>
<wgt id='1390'> +7.5986206e+04 </wgt>
<wgt id='1391'> +7.1648991e+04 </wgt>
<wgt id='1392'> +7.2290267e+04 </wgt>
<wgt id='1393'> +8.0885236e+04 </wgt>
<wgt id='1394'> +7.7250547e+04 </wgt>
<wgt id='1395'> +7.3884134e+04 </wgt>
<wgt id='1396'> +7.0157702e+04 </wgt>
<wgt id='1397'> +7.8148650e+04 </wgt>
<wgt id='1398'> +7.1763663e+04 </wgt>
<wgt id='1399'> +7.2022345e+04 </wgt>
<wgt id='1400'> +7.5339802e+04 </wgt>
<wgt id='1401'> +7.1569113e+04 </wgt>
<wgt id='1402'> +7.5786325e+04 </wgt>
<wgt id='1403'> +7.1831223e+04 </wgt>
<wgt id='1404'> +7.1003031e+04 </wgt>
<wgt id='1405'> +7.6193097e+04 </wgt>
<wgt id='1406'> +7.3574300e+04 </wgt>
<wgt id='1407'> +6.9321220e+04 </wgt>
<wgt id='1408'> +7.8692294e+04 </wgt>
<wgt id='1409'> +7.6137537e+04 </wgt>
<wgt id='1410'> +7.5844769e+04 </wgt>
<wgt id='1411'> +7.0517386e+04 </wgt>
<wgt id='1412'> +7.5030586e+04 </wgt>
<wgt id='1413'> +7.7280481e+04 </wgt>
<wgt id='1414'> +7.7102829e+04 </wgt>
<wgt id='1415'> +7.9139854e+04 </wgt>
<wgt id='1416'> +7.1338068e+04 </wgt>
<wgt id='1417'> +7.7776197e+04 </wgt>
<wgt id='1418'> +7.5949572e+04 </wgt>
<wgt id='1419'> +7.3568707e+04 </wgt>
<wgt id='1420'> +8.0880177e+04 </wgt>
<wgt id='1421'> +7.7326205e+04 </wgt>
<wgt id='1422'> +7.1117359e+04 </wgt>
<wgt id='1423'> +7.3262004e+04 </wgt>
<wgt id='1424'> +7.1687088e+04 </wgt>
<wgt id='1425'> +7.6053622e+04 </wgt>
<wgt id='1426'> +7.2662266e+04 </wgt>
<wgt id='1427'> +7.2022144e+04 </wgt>
<wgt id='1428'> +7.3328848e+04 </wgt>
<wgt id='1429'> +7.5597660e+04 </wgt>
<wgt id='1430'> +7.4553135e+04 </wgt>
<wgt id='1431'> +7.5061264e+04 </wgt>
<wgt id='1432'> +7.5349959e+04 </wgt>
<wgt id='1433'> +7.5117285e+04 </wgt>
<wgt id='1434'> +7.5026480e+04 </wgt>
<wgt id='1435'> +7.5128211e+04 </wgt>
<wgt id='1436'> +7.4895872e+04 </wgt>
<wgt id='1437'> +7.5744968e+04 </wgt>
<wgt id='1438'> +7.5041621e+04 </wgt>
<wgt id='1439'> +7.6055140e+04 </wgt>
<wgt id='1440'> +7.4965407e+04 </wgt>
<wgt id='1441'> +7.4932829e+04 </wgt>
<wgt id='1442'> +7.4584653e+04 </wgt>
<wgt id='1443'> +7.4863566e+04 </wgt>
<wgt id='1444'> +7.6044622e+04 </wgt>
<wgt id='1445'> +7.4853329e+04 </wgt>
<wgt id='1446'> +7.5069493e+04 </wgt>
<wgt id='1447'> +7.5543296e+04 </wgt>
<wgt id='1448'> +7.5359721e+04 </wgt>
<wgt id='1449'> +7.5205717e+04 </wgt>
<wgt id='1450'> +7.5844441e+04 </wgt>
<wgt id='1451'> +7.5191321e+04 </wgt>
<wgt id='1452'> +7.5688929e+04 </wgt>
<wgt id='1453'> +7.4674591e+04 </wgt>
<wgt id='1454'> +7.4858678e+04 </wgt>
<wgt id='1455'> +7.5072435e+04 </wgt>
<wgt id='1456'> +7.4930548e+04 </wgt>
<wgt id='1457'> +7.5644985e+04 </wgt>
<wgt id='1458'> +7.4585735e+04 </wgt>
<wgt id='1459'> +7.4539462e+04 </wgt>
<wgt id='1460'> +7.5782239e+04 </wgt>
<wgt id='1461'> +7.5152474e+04 </wgt>
<wgt id='1462'> +7.4945638e+04 </wgt>
<wgt id='1463'> +7.5641982e+04 </wgt>
<wgt id='1464'> +7.5079488e+04 </wgt>
<wgt id='1465'> +7.5328730e+04 </wgt>
<wgt id='1466'> +7.5117210e+04 </wgt>
<wgt id='1467'> +7.4856015e+04 </wgt>
<wgt id='1468'> +7.5332736e+04 </wgt>
<wgt id='1469'> +7.4915199e+04 </wgt>
<wgt id='1470'> +7.5469832e+04 </wgt>
<wgt id='1471'> +7.5046416e+04 </wgt>
<wgt id='1472'> +7.5234728e+04 </wgt>
<wgt id='1473'> +7.4802854e+04 </wgt>
<wgt id='1474'> +7.4981739e+04 </wgt>
<wgt id='1475'> +7.4660084e+04 </wgt>
<wgt id='1476'> +7.5084715e+04 </wgt>
<wgt id='1477'> +7.4748322e+04 </wgt>
<wgt id='1478'> +7.4958498e+04 </wgt>
<wgt id='1479'> +7.4925763e+04 </wgt>
<wgt id='1480'> +7.4798837e+04 </wgt>
<wgt id='1481'> +7.5148091e+04 </wgt>
<wgt id='1482'> +7.5597660e+04 </wgt>
<wgt id='1483'> +7.4553135e+04 </wgt>
<wgt id='1484'> +7.4460809e+04 </wgt>
<wgt id='1485'> +7.1427704e+04 </wgt>
<wgt id='1486'> +7.3276193e+04 </wgt>
<wgt id='1487'> +7.6494812e+04 </wgt>
<wgt id='1488'> +7.2725206e+04 </wgt>
<wgt id='1489'> +6.9774229e+04 </wgt>
<wgt id='1490'> +7.6578494e+04 </wgt>
<wgt id='1491'> +7.4677928e+04 </wgt>
<wgt id='1492'> +7.1790414e+04 </wgt>
<wgt id='1493'> +7.9798559e+04 </wgt>
<wgt id='1494'> +7.5614803e+04 </wgt>
<wgt id='1495'> +7.4145119e+04 </wgt>
<wgt id='1496'> +7.2964040e+04 </wgt>
<wgt id='1497'> +7.4992364e+04 </wgt>
<wgt id='1498'> +7.7275731e+04 </wgt>
<wgt id='1499'> +7.6167677e+04 </wgt>
<wgt id='1500'> +7.9253201e+04 </wgt>
<wgt id='1501'> +7.7375568e+04 </wgt>
<wgt id='1502'> +7.5831498e+04 </wgt>
<wgt id='1503'> +7.2018804e+04 </wgt>
<wgt id='1504'> +7.4830661e+04 </wgt>
<wgt id='1505'> +7.8139319e+04 </wgt>
<wgt id='1506'> +7.5337077e+04 </wgt>
<wgt id='1507'> +7.2772463e+04 </wgt>
<wgt id='1508'> +7.1217392e+04 </wgt>
<wgt id='1509'> +6.9814254e+04 </wgt>
<wgt id='1510'> +6.7084937e+04 </wgt>
<wgt id='1511'> +7.5926908e+04 </wgt>
<wgt id='1512'> +7.8493412e+04 </wgt>
<wgt id='1513'> +7.8532106e+04 </wgt>
<wgt id='1514'> +7.0423563e+04 </wgt>
<wgt id='1515'> +7.1271497e+04 </wgt>
<wgt id='1516'> +7.7046135e+04 </wgt>
<wgt id='1517'> +7.4941348e+04 </wgt>
<wgt id='1518'> +7.3836097e+04 </wgt>
<wgt id='1519'> +7.5790679e+04 </wgt>
<wgt id='1520'> +7.4549398e+04 </wgt>
<wgt id='1521'> +7.6135061e+04 </wgt>
<wgt id='1522'> +7.3517682e+04 </wgt>
<wgt id='1523'> +7.3571984e+04 </wgt>
<wgt id='1524'> +7.2373591e+04 </wgt>
<wgt id='1525'> +7.7088351e+04 </wgt>
<wgt id='1526'> +7.5982389e+04 </wgt>
<wgt id='1527'> +7.4520963e+04 </wgt>
<wgt id='1528'> +7.3237935e+04 </wgt>
<wgt id='1529'> +7.0293685e+04 </wgt>
<wgt id='1530'> +7.2745570e+04 </wgt>
<wgt id='1531'> +7.4136534e+04 </wgt>
<wgt id='1532'> +7.9531404e+04 </wgt>
<wgt id='1533'> +7.5057395e+04 </wgt>
<wgt id='1534'> +7.3843173e+04 </wgt>
<wgt id='1535'> +7.3141043e+04 </wgt>
<wgt id='1536'> +7.3336314e+04 </wgt>
<wgt id='1537'> +7.4638730e+04 </wgt>
<wgt id='1538'> +6.9498133e+04 </wgt>
<wgt id='1539'> +7.3050041e+04 </wgt>
<wgt id='1540'> +7.4056503e+04 </wgt>
<wgt id='1541'> +7.8393443e+04 </wgt>
<wgt id='1542'> +7.1639983e+04 </wgt>
<wgt id='1543'> +7.2821929e+04 </wgt>
<wgt id='1544'> +7.4392580e+04 </wgt>
<wgt id='1545'> +7.8829231e+04 </wgt>
<wgt id='1546'> +7.8510819e+04 </wgt>
<wgt id='1547'> +7.5042631e+04 </wgt>
<wgt id='1548'> +7.4052506e+04 </wgt>
<wgt id='1549'> +7.2505002e+04 </wgt>
<wgt id='1550'> +7.3248151e+04 </wgt>
<wgt id='1551'> +7.7332450e+04 </wgt>
<wgt id='1552'> +7.6345508e+04 </wgt>
<wgt id='1553'> +7.4496738e+04 </wgt>
<wgt id='1554'> +7.3363114e+04 </wgt>
<wgt id='1555'> +7.0921935e+04 </wgt>
<wgt id='1556'> +7.1135787e+04 </wgt>
<wgt id='1557'> +7.0796205e+04 </wgt>
<wgt id='1558'> +7.5502446e+04 </wgt>
<wgt id='1559'> +7.5225499e+04 </wgt>
<wgt id='1560'> +7.3756166e+04 </wgt>
<wgt id='1561'> +7.2932800e+04 </wgt>
<wgt id='1562'> +7.5853251e+04 </wgt>
<wgt id='1563'> +7.2036095e+04 </wgt>
<wgt id='1564'> +7.5768529e+04 </wgt>
<wgt id='1565'> +7.4779798e+04 </wgt>
<wgt id='1566'> +7.4508910e+04 </wgt>
<wgt id='1567'> +7.7779933e+04 </wgt>
<wgt id='1568'> +7.7568449e+04 </wgt>
<wgt id='1569'> +7.3153609e+04 </wgt>
<wgt id='1570'> +7.6996968e+04 </wgt>
<wgt id='1571'> +7.2828648e+04 </wgt>
<wgt id='1572'> +7.5482642e+04 </wgt>
<wgt id='1573'> +7.4767184e+04 </wgt>
<wgt id='1574'> +7.2687290e+04 </wgt>
<wgt id='1575'> +7.4834207e+04 </wgt>
<wgt id='1576'> +7.5533678e+04 </wgt>
<wgt id='1577'> +7.3848933e+04 </wgt>
<wgt id='1578'> +7.7892961e+04 </wgt>
<wgt id='1579'> +7.8416588e+04 </wgt>
<wgt id='1580'> +7.4879633e+04 </wgt>
<wgt id='1581'> +7.4197502e+04 </wgt>
<wgt id='1582'> +7.4548782e+04 </wgt>
<wgt id='1583'> +7.3959183e+04 </wgt>
<wgt id='1584'> +7.0541845e+04 </wgt>
<wgt id='1585'> +7.8879719e+04 </wgt>
<wgt id='1586'> +7.9333744e+04 </wgt>
<wgt id='1587'> +7.5421803e+04 </wgt>
<wgt id='1588'> +7.5597660e+04 </wgt>
<wgt id='1589'> +7.4701688e+04 </wgt>
<wgt id='1590'> +7.5009899e+04 </wgt>
<wgt id='1591'> +7.4553135e+04 </wgt>
<wgt id='1592'> +7.5120243e+04 </wgt>
<wgt id='1593'> +7.1418586e+04 </wgt>
<wgt id='1594'> +7.0185318e+04 </wgt>
<wgt id='1595'> +6.9692249e+04 </wgt>
<wgt id='1596'> +6.9674971e+04 </wgt>
<wgt id='1597'> +7.3504218e+04 </wgt>
<wgt id='1598'> +6.7682586e+04 </wgt>
<wgt id='1599'> +7.5085828e+04 </wgt>
<wgt id='1600'> +6.9661284e+04 </wgt>
<wgt id='1601'> +7.2746802e+04 </wgt>
<wgt id='1602'> +7.0102987e+04 </wgt>
<wgt id='1603'> +7.2702179e+04 </wgt>
<wgt id='1604'> +7.0235042e+04 </wgt>
<wgt id='1605'> +7.3948492e+04 </wgt>
<wgt id='1606'> +7.3973466e+04 </wgt>
<wgt id='1607'> +6.7394967e+04 </wgt>
<wgt id='1608'> +7.2381817e+04 </wgt>
<wgt id='1609'> +6.9916576e+04 </wgt>
<wgt id='1610'> +7.3608439e+04 </wgt>
<wgt id='1611'> +6.8807331e+04 </wgt>
<wgt id='1612'> +7.2730094e+04 </wgt>
<wgt id='1613'> +6.7485534e+04 </wgt>
<wgt id='1614'> +7.0609703e+04 </wgt>
<wgt id='1615'> +7.2733392e+04 </wgt>
<wgt id='1616'> +7.2627385e+04 </wgt>
<wgt id='1617'> +6.9156122e+04 </wgt>
<wgt id='1618'> +7.2308554e+04 </wgt>
<wgt id='1619'> +6.9499689e+04 </wgt>
<wgt id='1620'> +7.1929834e+04 </wgt>
<wgt id='1621'> +7.1097790e+04 </wgt>
<wgt id='1622'> +7.0998297e+04 </wgt>
<wgt id='1623'> +7.0270383e+04 </wgt>
<wgt id='1624'> +7.1817714e+04 </wgt>
<wgt id='1625'> +7.0092216e+04 </wgt>
<wgt id='1626'> +7.0906903e+04 </wgt>
<wgt id='1627'> +7.0497208e+04 </wgt>
<wgt id='1628'> +7.1827693e+04 </wgt>
<wgt id='1629'> +7.1520520e+04 </wgt>
<wgt id='1630'> +7.3912909e+04 </wgt>
<wgt id='1631'> +6.8134520e+04 </wgt>
<wgt id='1632'> +6.6521228e+04 </wgt>
<wgt id='1633'> +7.5919946e+04 </wgt>
<wgt id='1634'> +7.3178664e+04 </wgt>
<wgt id='1635'> +6.9027874e+04 </wgt>
<wgt id='1636'> +7.1255372e+04 </wgt>
<wgt id='1637'> +7.1378326e+04 </wgt>
<wgt id='1638'> +7.2656777e+04 </wgt>
<wgt id='1639'> +7.0622088e+04 </wgt>
<wgt id='1640'> +7.2385566e+04 </wgt>
<wgt id='1641'> +7.0171610e+04 </wgt>
<wgt id='1642'> +7.0228745e+04 </wgt>
<wgt id='1643'> +7.2092400e+04 </wgt>
<wgt id='1644'> +7.2433261e+04 </wgt>
<wgt id='1645'> +6.9077050e+04 </wgt>
<wgt id='1646'> +6.9355975e+04 </wgt>
<wgt id='1647'> +7.4308050e+04 </wgt>
<wgt id='1648'> +7.2329897e+04 </wgt>
<wgt id='1649'> +7.0987655e+04 </wgt>
<wgt id='1650'> +7.2482663e+04 </wgt>
<wgt id='1651'> +7.0103272e+04 </wgt>
<wgt id='1652'> +7.1507079e+04 </wgt>
<wgt id='1653'> +7.1447548e+04 </wgt>
<wgt id='1654'> +7.1418654e+04 </wgt>
<wgt id='1655'> +7.1449814e+04 </wgt>
<wgt id='1656'> +7.1687370e+04 </wgt>
<wgt id='1657'> +7.0022585e+04 </wgt>
<wgt id='1658'> +7.1061304e+04 </wgt>
<wgt id='1659'> +6.9628774e+04 </wgt>
<wgt id='1660'> +7.3217264e+04 </wgt>
<wgt id='1661'> +7.3677742e+04 </wgt>
<wgt id='1662'> +6.8784742e+04 </wgt>
<wgt id='1663'> +7.0795940e+04 </wgt>
<wgt id='1664'> +7.0317303e+04 </wgt>
<wgt id='1665'> +7.4302969e+04 </wgt>
<wgt id='1666'> +6.9670276e+04 </wgt>
<wgt id='1667'> +7.0971351e+04 </wgt>
<wgt id='1668'> +7.2045675e+04 </wgt>
<wgt id='1669'> +7.1306622e+04 </wgt>
<wgt id='1670'> +7.1423783e+04 </wgt>
<wgt id='1671'> +7.2753337e+04 </wgt>
<wgt id='1672'> +6.9929151e+04 </wgt>
<wgt id='1673'> +6.9470594e+04 </wgt>
<wgt id='1674'> +7.3036663e+04 </wgt>
<wgt id='1675'> +7.3790793e+04 </wgt>
<wgt id='1676'> +6.8966469e+04 </wgt>
<wgt id='1677'> +7.0414209e+04 </wgt>
<wgt id='1678'> +7.3004020e+04 </wgt>
<wgt id='1679'> +6.9137061e+04 </wgt>
<wgt id='1680'> +7.4198031e+04 </wgt>
<wgt id='1681'> +6.9787438e+04 </wgt>
<wgt id='1682'> +7.2877982e+04 </wgt>
<wgt id='1683'> +7.1654101e+04 </wgt>
<wgt id='1684'> +7.1567825e+04 </wgt>
<wgt id='1685'> +7.3654217e+04 </wgt>
<wgt id='1686'> +6.8799686e+04 </wgt>
<wgt id='1687'> +7.4161907e+04 </wgt>
<wgt id='1688'> +6.7827450e+04 </wgt>
<wgt id='1689'> +7.3934620e+04 </wgt>
<wgt id='1690'> +6.9910493e+04 </wgt>
<wgt id='1691'> +7.3864097e+04 </wgt>
<wgt id='1692'> +6.9974470e+04 </wgt>
<wgt id='1693'> +7.0745259e+04 </wgt>
<wgt id='1694'> +7.2563657e+04 </wgt>
<wgt id='1695'> +6.8486191e+04 </wgt>
<wgt id='1696'> +7.4324800e+04 </wgt>
<wgt id='1697'> +7.2414058e+04 </wgt>
<wgt id='1698'> +7.0829943e+04 </wgt>
<wgt id='1699'> +7.0268548e+04 </wgt>
<wgt id='1700'> +7.3476721e+04 </wgt>
<wgt id='1701'> +7.3617230e+04 </wgt>
<wgt id='1702'> +6.9808176e+04 </wgt>
<wgt id='1703'> +7.2702684e+04 </wgt>
<wgt id='1704'> +7.1477933e+04 </wgt>
<wgt id='1705'> +7.1260230e+04 </wgt>
<wgt id='1706'> +7.2570417e+04 </wgt>
<wgt id='1707'> +6.9644477e+04 </wgt>
<wgt id='1708'> +7.3178909e+04 </wgt>
<wgt id='1709'> +6.9572707e+04 </wgt>
<wgt id='1710'> +7.3604527e+04 </wgt>
<wgt id='1711'> +7.0556987e+04 </wgt>
<wgt id='1712'> +7.2223212e+04 </wgt>
<wgt id='1713'> +7.2422363e+04 </wgt>
<wgt id='1714'> +7.0513190e+04 </wgt>
<wgt id='1715'> +6.8141932e+04 </wgt>
<wgt id='1716'> +7.2973776e+04 </wgt>
<wgt id='1717'> +7.3177362e+04 </wgt>
<wgt id='1718'> +7.3156785e+04 </wgt>
<wgt id='1719'> +7.3202315e+04 </wgt>
<wgt id='1720'> +7.3205998e+04 </wgt>
<wgt id='1721'> +7.3151204e+04 </wgt>
<wgt id='1722'> +7.3435658e+04 </wgt>
<wgt id='1723'> +7.2753474e+04 </wgt>
<wgt id='1724'> +7.3144583e+04 </wgt>
<wgt id='1725'> +7.3203319e+04 </wgt>
<wgt id='1726'> +7.3186698e+04 </wgt>
<wgt id='1727'> +7.3167012e+04 </wgt>
<wgt id='1728'> +7.1855866e+04 </wgt>
<wgt id='1729'> +7.4464014e+04 </wgt>
<wgt id='1730'> +7.3077215e+04 </wgt>
<wgt id='1731'> +7.3248509e+04 </wgt>
<wgt id='1732'> +7.4028044e+04 </wgt>
<wgt id='1733'> +7.4028044e+04 </wgt>
<wgt id='1734'> +7.2967394e+04 </wgt>
<wgt id='1735'> +7.3315848e+04 </wgt>
<wgt id='1736'> +7.2881996e+04 </wgt>
<wgt id='1737'> +7.3583464e+04 </wgt>
<wgt id='1738'> +7.2765082e+04 </wgt>
<wgt id='1739'> +7.3762875e+04 </wgt>
<wgt id='1740'> +7.3132832e+04 </wgt>
<wgt id='1741'> +7.3281715e+04 </wgt>
<wgt id='1742'> +7.3334984e+04 </wgt>
<wgt id='1743'> +7.2994547e+04 </wgt>
<wgt id='1744'> +7.3023785e+04 </wgt>
<wgt id='1745'> +7.3594105e+04 </wgt>
<wgt id='1746'> +7.2897487e+04 </wgt>
<wgt id='1747'> +7.3322943e+04 </wgt>
<wgt id='1748'> +7.3688850e+04 </wgt>
<wgt id='1749'> +7.1587475e+04 </wgt>
<wgt id='1750'> +7.3156646e+04 </wgt>
<wgt id='1751'> +7.3198625e+04 </wgt>
<wgt id='1752'> +7.2933633e+04 </wgt>
<wgt id='1753'> +7.3514046e+04 </wgt>
<wgt id='1754'> +7.2042741e+04 </wgt>
<wgt id='1755'> +7.3806755e+04 </wgt>
<wgt id='1756'> +7.3458765e+04 </wgt>
<wgt id='1757'> +7.2418161e+04 </wgt>
<wgt id='1758'> +7.3357499e+04 </wgt>
<wgt id='1759'> +7.2754523e+04 </wgt>
<wgt id='1760'> +7.3269879e+04 </wgt>
<wgt id='1761'> +7.3166816e+04 </wgt>
<wgt id='1762'> +7.3155676e+04 </wgt>
<wgt id='1763'> +7.3310958e+04 </wgt>
<wgt id='1764'> +7.2539285e+04 </wgt>
<wgt id='1765'> +7.6309596e+04 </wgt>
<wgt id='1766'> +7.3682437e+04 </wgt>
<wgt id='1767'> +7.2625656e+04 </wgt>
<wgt id='1768'> +7.3381133e+04 </wgt>
<wgt id='1769'> +7.3039673e+04 </wgt>
<wgt id='1770'> +7.2871500e+04 </wgt>
<wgt id='1771'> +7.3775160e+04 </wgt>
<wgt id='1772'> +7.3073094e+04 </wgt>
<wgt id='1773'> +7.3666741e+04 </wgt>
<wgt id='1774'> +7.2236753e+04 </wgt>
<wgt id='1775'> +7.3714041e+04 </wgt>
<wgt id='1776'> +7.3598625e+04 </wgt>
<wgt id='1777'> +7.3004941e+04 </wgt>
<wgt id='1778'> +7.2148526e+04 </wgt>
<wgt id='1779'> +7.3587338e+04 </wgt>
<wgt id='1780'> +7.3859764e+04 </wgt>
<wgt id='1781'> +7.3229088e+04 </wgt>
<wgt id='1782'> +7.3177362e+04 </wgt>
<wgt id='1783'> +7.3129254e+04 </wgt>
<wgt id='1784'> +7.2054686e+04 </wgt>
<wgt id='1785'> +7.1822079e+04 </wgt>
<wgt id='1786'> +7.0941138e+04 </wgt>
<wgt id='1787'> +7.2069350e+04 </wgt>
<wgt id='1788'> +6.7786185e+04 </wgt>
<wgt id='1789'> +7.1909306e+04 </wgt>
<wgt id='1790'> +7.2310576e+04 </wgt>
<wgt id='1791'> +7.2091955e+04 </wgt>
<wgt id='1792'> +7.1910661e+04 </wgt>
<wgt id='1793'> +7.1852770e+04 </wgt>
<wgt id='1794'> +7.2061254e+04 </wgt>
<wgt id='1795'> +7.1235617e+04 </wgt>
<wgt id='1796'> +7.2211763e+04 </wgt>
<wgt id='1797'> +7.1919202e+04 </wgt>
<wgt id='1798'> +7.1983019e+04 </wgt>
<wgt id='1799'> +7.2387509e+04 </wgt>
<wgt id='1800'> +7.2083527e+04 </wgt>
<wgt id='1801'> +7.2216272e+04 </wgt>
<wgt id='1802'> +7.1657439e+04 </wgt>
<wgt id='1803'> +7.1761738e+04 </wgt>
<wgt id='1804'> +7.1441357e+04 </wgt>
<wgt id='1805'> +7.2065465e+04 </wgt>
<wgt id='1806'> +7.1953289e+04 </wgt>
<wgt id='1807'> +7.1772672e+04 </wgt>
<wgt id='1808'> +7.2085577e+04 </wgt>
<wgt id='1809'> +7.2299256e+04 </wgt>
<wgt id='1810'> +7.1890091e+04 </wgt>
<wgt id='1811'> +7.1950425e+04 </wgt>
<wgt id='1812'> +7.1914903e+04 </wgt>
<wgt id='1813'> +7.1947168e+04 </wgt>
<wgt id='1814'> +7.1750428e+04 </wgt>
<wgt id='1815'> +7.2038932e+04 </wgt>
<wgt id='1816'> +7.1996540e+04 </wgt>
<wgt id='1817'> +7.1687903e+04 </wgt>
<wgt id='1818'> +7.2173467e+04 </wgt>
<wgt id='1819'> +7.1828267e+04 </wgt>
<wgt id='1820'> +7.2264032e+04 </wgt>
<wgt id='1821'> +7.1859336e+04 </wgt>
<wgt id='1822'> +7.1879405e+04 </wgt>
<wgt id='1823'> +7.1978148e+04 </wgt>
<wgt id='1824'> +7.2008461e+04 </wgt>
<wgt id='1825'> +7.2401184e+04 </wgt>
<wgt id='1826'> +7.3046501e+04 </wgt>
<wgt id='1827'> +8.3766854e+04 </wgt>
<wgt id='1828'> +8.4061809e+04 </wgt>
<wgt id='1829'> +8.3487323e+04 </wgt>
<wgt id='1830'> +8.3619431e+04 </wgt>
<wgt id='1831'> +8.3926487e+04 </wgt>
<wgt id='1832'> +8.3869300e+04 </wgt>
<wgt id='1833'> +8.3678479e+04 </wgt>
<wgt id='1834'> +8.2433890e+04 </wgt>
<wgt id='1835'> +8.5089087e+04 </wgt>
<wgt id='1836'> +8.4401869e+04 </wgt>
<wgt id='1837'> +8.3128227e+04 </wgt>
<wgt id='1838'> +8.3789666e+04 </wgt>
<wgt id='1839'> +8.3757162e+04 </wgt>
<wgt id='1840'> +8.3665096e+04 </wgt>
<wgt id='1841'> +8.3894195e+04 </wgt>
<wgt id='1842'> +8.3965032e+04 </wgt>
<wgt id='1843'> +8.3943636e+04 </wgt>
<wgt id='1844'> +8.2364469e+04 </wgt>
<wgt id='1845'> +8.5182123e+04 </wgt>
<wgt id='1846'> +8.5148941e+04 </wgt>
<wgt id='1847'> +8.2410754e+04 </wgt>
<wgt id='1848'> +7.9954821e+04 </wgt>
<wgt id='1849'> +8.7660794e+04 </wgt>
<wgt id='1850'> +8.0274110e+04 </wgt>
<wgt id='1851'> +8.7419171e+04 </wgt>
<wgt id='1852'> +8.4232270e+04 </wgt>
<wgt id='1853'> +8.2749718e+04 </wgt>
<wgt id='1854'> +8.3307556e+04 </wgt>
<wgt id='1855'> +8.2426616e+04 </wgt>
<wgt id='1856'> +7.0098571e+04 </wgt>
<wgt id='1857'> +7.0085167e+04 </wgt>
<wgt id='1858'> +7.0010818e+04 </wgt>
<wgt id='1859'> +7.0355322e+04 </wgt>
<wgt id='1860'> +7.0103193e+04 </wgt>
<wgt id='1861'> +7.0375445e+04 </wgt>
<wgt id='1862'> +6.9677928e+04 </wgt>
<wgt id='1863'> +7.0213983e+04 </wgt>
<wgt id='1864'> +6.9601531e+04 </wgt>
<wgt id='1865'> +6.9805311e+04 </wgt>
<wgt id='1866'> +7.0580202e+04 </wgt>
<wgt id='1867'> +6.9981520e+04 </wgt>
<wgt id='1868'> +7.0327709e+04 </wgt>
<wgt id='1869'> +7.0367604e+04 </wgt>
<wgt id='1870'> +6.9564193e+04 </wgt>
<wgt id='1871'> +7.0303713e+04 </wgt>
<wgt id='1872'> +6.9833795e+04 </wgt>
<wgt id='1873'> +7.0083812e+04 </wgt>
<wgt id='1874'> +7.0411037e+04 </wgt>
<wgt id='1875'> +7.0417105e+04 </wgt>
<wgt id='1876'> +7.0623111e+04 </wgt>
<wgt id='1877'> +6.9970241e+04 </wgt>
<wgt id='1878'> +6.9621746e+04 </wgt>
<wgt id='1879'> +6.9433705e+04 </wgt>
<wgt id='1880'> +7.0157352e+04 </wgt>
<wgt id='1881'> +7.0294110e+04 </wgt>
<wgt id='1882'> +7.1054830e+04 </wgt>
<wgt id='1883'> +6.9592659e+04 </wgt>
<wgt id='1884'> +7.1506985e+04 </wgt>
<wgt id='1885'> +6.9581364e+04 </wgt>
<wgt id='1886'> +9.7703616e+04 </wgt>
<wgt id='1887'> +1.0106279e+05 </wgt>
<wgt id='1888'> +7.2402967e+04 </wgt>
<wgt id='1889'> +8.4597602e+04 </wgt>
</rwgt>
</event>
<event npLO=" -1 " npNLO=" 0 ">
 5      1 +7.4519530e+04 2.09631030e+01 7.55820760e-03 1.19945540e-01
        1 -1    0    0  501    0 +0.0000000000e+00 +0.0000000000e+00 +7.6188346356e+02 7.6188346356e+02 0.0000000000e+00 0.0000e+00 -1.0000e+00
       -2 -1    0    0    0  501 +0.0000000000e+00 +0.0000000000e+00 -2.1777831198e+00 2.1777831198e+00 0.0000000000e+00 0.0000e+00 1.0000e+00
      -24  2    1    2    0    0 +0.0000000000e+00 +0.0000000000e+00 +7.5970568044e+02 7.6406124668e+02 8.1466973584e+01 0.0000e+00 0.0000e+00
       13  1    3    3    0    0 -1.4843508454e+00 +2.5726017443e+01 +6.7572128429e+02 6.7621245575e+02 0.0000000000e+00 0.0000e+00 -1.0000e+00
      -14  1    3    3    0    0 +1.4843508454e+00 -2.5726017443e+01 +8.3984396154e+01 8.7848790932e+01 0.0000000000e+00 0.0000e+00 1.0000e+00
#aMCatNLO 1  0  0  1  2 0.93967617E+01 0.00000000E+00 -9  5  0 0.00000000E+00 0.00000000E+00 0.00000000E+00 0.00000000E+00 0.00000000E+00
<rwgt>
<wgt id='1001'> +7.4519530e+04 </wgt>
<wgt id='1002'> +7.1802235e+04 </wgt>
<wgt id='1003'> +7.7901835e+04 </wgt>
<wgt id='1004'> +9.8407071e+04 </wgt>
<wgt id='1005'> +9.3835457e+04 </wgt>
<wgt id='1006'> +1.0409861e+05 </wgt>
<wgt id='1007'> +5.3781994e+04 </wgt>
<wgt id='1008'> +5.2569852e+04 </wgt>
<wgt id='1009'> +5.5289929e+04 </wgt>
<wgt id='1010'> +7.4519530e+04 </wgt>
<wgt id='1011'> +7.4458954e+04 </wgt>
<wgt id='1012'> +7.4559913e+04 </wgt>
<wgt id='1013'> +7.4061252e+04 </wgt>
<wgt id='1014'> +7.4371752e+04 </wgt>
<wgt id='1015'> +7.4140123e+04 </wgt>
<wgt id='1016'> +7.4364317e+04 </wgt>
<wgt id='1017'> +7.4224814e+04 </wgt>
<wgt id='1018'> +7.4111567e+04 </wgt>
<wgt id='1019'> +7.4464198e+04 </wgt>
<wgt id='1020'> +7.4341879e+04 </wgt>
<wgt id='1021'> +7.4518025e+04 </wgt>
<wgt id='1022'> +7.4591832e+04 </wgt>
<wgt id='1023'> +7.4612706e+04 </wgt>
<wgt id='1024'> +7.4548549e+04 </wgt>
<wgt id='1025'> +7.4863086e+04 </wgt>
<wgt id='1026'> +7.4554785e+04 </wgt>
<wgt id='1027'> +7.4561014e+04 </wgt>
<wgt id='1028'> +7.4461556e+04 </wgt>
<wgt id='1029'> +7.4793291e+04 </wgt>
<wgt id='1030'> +7.4613375e+04 </wgt>
<wgt id='1031'> +7.4596488e+04 </wgt>
<wgt id='1032'> +7.4419602e+04 </wgt>
<wgt id='1033'> +7.4452942e+04 </wgt>
<wgt id='1034'> +7.4685995e+04 </wgt>
<wgt id='1035'> +7.4331359e+04 </wgt>
<wgt id='1036'> +7.4330755e+04 </wgt>
<wgt id='1037'> +7.4812738e+04 </wgt>
<wgt id='1038'> +7.4426555e+04 </wgt>
<wgt id='1039'> +7.5283072e+04 </wgt>
<wgt id='1040'> +7.4247468e+04 </wgt>
<wgt id='1041'> +7.5272334e+04 </wgt>
<wgt id='1042'> +7.4622009e+04 </wgt>
<wgt id='1043'> +7.4869319e+04 </wgt>
<wgt id='1044'> +7.4707850e+04 </wgt>
<wgt id='1045'> +7.4159867e+04 </wgt>
<wgt id='1046'> +7.4159785e+04 </wgt>
<wgt id='1047'> +7.4557408e+04 </wgt>
<wgt id='1048'> +7.4452484e+04 </wgt>
<wgt id='1049'> +7.4500749e+04 </wgt>
<wgt id='1050'> +7.4531222e+04 </wgt>
<wgt id='1051'> +7.4656323e+04 </wgt>
<wgt id='1052'> +7.4621252e+04 </wgt>
<wgt id='1053'> +7.4423483e+04 </wgt>
<wgt id='1054'> +7.4180902e+04 </wgt>
<wgt id='1055'> +7.4510373e+04 </wgt>
<wgt id='1056'> +7.4618339e+04 </wgt>
<wgt id='1057'> +7.4241969e+04 </wgt>
<wgt id='1058'> +7.4279070e+04 </wgt>
<wgt id='1059'> +7.4616679e+04 </wgt>
<wgt id='1060'> +7.4483680e+04 </wgt>
<wgt id='1061'> +7.4421746e+04 </wgt>
<wgt id='1062'> +7.4618002e+04 </wgt>
<wgt id='1063'> +7.4732160e+04 </wgt>
<wgt id='1064'> +7.4834281e+04 </wgt>
<wgt id='1065'> +7.4836835e+04 </wgt>
<wgt id='1066'> +7.4482791e+04 </wgt>
<wgt id='1067'> +7.4530511e+04 </wgt>
<wgt id='1068'> +7.4667511e+04 </wgt>
<wgt id='1069'> +7.4476070e+04 </wgt>
<wgt id='1070'> +7.4769359e+04 </wgt>
<wgt id='1071'> +7.4849237e+04 </wgt>
<wgt id='1072'> +7.4607936e+04 </wgt>
<wgt id='1073'> +7.4355871e+04 </wgt>
<wgt id='1074'> +7.4451640e+04 </wgt>
<wgt id='1075'> +7.4832183e+04 </wgt>
<wgt id='1076'> +7.4667990e+04 </wgt>
<wgt id='1077'> +7.4625852e+04 </wgt>
<wgt id='1078'> +7.4468595e+04 </wgt>
<wgt id='1079'> +7.4477242e+04 </wgt>
<wgt id='1080'> +7.4622724e+04 </wgt>
<wgt id='1081'> +7.4511442e+04 </wgt>
<wgt id='1082'> +7.4510204e+04 </wgt>
<wgt id='1083'> +7.4578215e+04 </wgt>
<wgt id='1084'> +7.4356227e+04 </wgt>
<wgt id='1085'> +7.4531221e+04 </wgt>
<wgt id='1086'> +7.4465710e+04 </wgt>
<wgt id='1087'> +7.4568548e+04 </wgt>
<wgt id='1088'> +7.4401067e+04 </wgt>
<wgt id='1089'> +7.4460566e+04 </wgt>
<wgt id='1090'> +7.4555211e+04 </wgt>
<wgt id='1091'> +7.4541731e+04 </wgt>
<wgt id='1092'> +7.4615680e+04 </wgt>
<wgt id='1093'> +7.4783782e+04 </wgt>
<wgt id='1094'> +7.4477639e+04 </wgt>
<wgt id='1095'> +7.4522459e+04 </wgt>
<wgt id='1096'> +7.4494589e+04 </wgt>
<wgt id='1097'> +7.4669809e+04 </wgt>
<wgt id='1098'> +7.4615201e+04 </wgt>
<wgt id='1099'> +7.4581001e+04 </wgt>
<wgt id='1100'> +7.4618048e+04 </wgt>
<wgt id='1101'> +7.4534950e+04 </wgt>
<wgt id='1102'> +7.4519948e+04 </wgt>
<wgt id='1103'> +7.4513473e+04 </wgt>
<wgt id='1104'> +7.4491013e+04 </wgt>
<wgt id='1105'> +7.4530747e+04 </wgt>
<wgt id='1106'> +7.4496758e+04 </wgt>
<wgt id='1107'> +7.4532486e+04 </wgt>
<wgt id='1108'> +7.4544019e+04 </wgt>
<wgt id='1109'> +7.4616814e+04 </wgt>
<wgt id='1110'> +7.4519533e+04 </wgt>
<wgt id='1111'> +7.3539068e+04 </wgt>
<wgt id='1112'> +7.5817890e+04 </wgt>
<wgt id='1113'> +7.4519533e+04 </wgt>
<wgt id='1114'> +7.5851032e+04 </wgt>
<wgt id='1115'> +7.7194493e+04 </wgt>
<wgt id='1116'> +7.3360210e+04 </wgt>
<wgt id='1117'> +7.5264671e+04 </wgt>
<wgt id='1118'> +7.4370235e+04 </wgt>
<wgt id='1119'> +7.3511615e+04 </wgt>
<wgt id='1120'> +7.7299371e+04 </wgt>
<wgt id='1121'> +7.5176932e+04 </wgt>
<wgt id='1122'> +7.4640154e+04 </wgt>
<wgt id='1123'> +6.9647975e+04 </wgt>
<wgt id='1124'> +7.3194693e+04 </wgt>
<wgt id='1125'> +7.3195982e+04 </wgt>
<wgt id='1126'> +7.3000899e+04 </wgt>
<wgt id='1127'> +7.4087264e+04 </wgt>
<wgt id='1128'> +7.5300411e+04 </wgt>
<wgt id='1129'> +7.3022444e+04 </wgt>
<wgt id='1130'> +7.4451862e+04 </wgt>
<wgt id='1131'> +7.4444233e+04 </wgt>
<wgt id='1132'> +7.6396907e+04 </wgt>
<wgt id='1133'> +7.4175377e+04 </wgt>
<wgt id='1134'> +7.6765453e+04 </wgt>
<wgt id='1135'> +7.7349051e+04 </wgt>
<wgt id='1136'> +7.6061922e+04 </wgt>
<wgt id='1137'> +7.3229368e+04 </wgt>
<wgt id='1138'> +7.4976663e+04 </wgt>
<wgt id='1139'> +7.4210159e+04 </wgt>
<wgt id='1140'> +7.5250730e+04 </wgt>
<wgt id='1141'> +7.6075947e+04 </wgt>
<wgt id='1142'> +7.3345348e+04 </wgt>
<wgt id='1143'> +7.7422163e+04 </wgt>
<wgt id='1144'> +7.7081101e+04 </wgt>
<wgt id='1145'> +7.5388388e+04 </wgt>
<wgt id='1146'> +7.6207554e+04 </wgt>
<wgt id='1147'> +7.3697548e+04 </wgt>
<wgt id='1148'> +7.2773979e+04 </wgt>
<wgt id='1149'> +7.2801740e+04 </wgt>
<wgt id='1150'> +7.2018591e+04 </wgt>
<wgt id='1151'> +7.3821846e+04 </wgt>
<wgt id='1152'> +7.4730132e+04 </wgt>
<wgt id='1153'> +7.3827238e+04 </wgt>
<wgt id='1154'> +7.6489972e+04 </wgt>
<wgt id='1155'> +7.6287626e+04 </wgt>
<wgt id='1156'> +7.5794534e+04 </wgt>
<wgt id='1157'> +7.6034480e+04 </wgt>
<wgt id='1158'> +7.3722443e+04 </wgt>
<wgt id='1159'> +7.3095622e+04 </wgt>
<wgt id='1160'> +7.5503335e+04 </wgt>
<wgt id='1161'> +7.6209465e+04 </wgt>
<wgt id='1162'> +7.7543725e+04 </wgt>
<wgt id='1163'> +7.3970212e+04 </wgt>
<wgt id='1164'> +7.5234589e+04 </wgt>
<wgt id='1165'> +7.5899697e+04 </wgt>
<wgt id='1166'> +7.6000626e+04 </wgt>
<wgt id='1167'> +7.5672350e+04 </wgt>
<wgt id='1168'> +7.1926301e+04 </wgt>
<wgt id='1169'> +7.4006487e+04 </wgt>
<wgt id='1170'> +7.4180635e+04 </wgt>
<wgt id='1171'> +7.6162189e+04 </wgt>
<wgt id='1172'> +7.5234503e+04 </wgt>
<wgt id='1173'> +7.4208835e+04 </wgt>
<wgt id='1174'> +7.4950023e+04 </wgt>
<wgt id='1175'> +7.4000111e+04 </wgt>
<wgt id='1176'> +7.4052111e+04 </wgt>
<wgt id='1177'> +7.4355197e+04 </wgt>
<wgt id='1178'> +7.3387258e+04 </wgt>
<wgt id='1179'> +7.2057076e+04 </wgt>
<wgt id='1180'> +7.3896876e+04 </wgt>
<wgt id='1181'> +7.5916592e+04 </wgt>
<wgt id='1182'> +7.4820829e+04 </wgt>
<wgt id='1183'> +7.6203617e+04 </wgt>
<wgt id='1184'> +7.7569408e+04 </wgt>
<wgt id='1185'> +7.4806732e+04 </wgt>
<wgt id='1186'> +7.0745540e+04 </wgt>
<wgt id='1187'> +7.2977446e+04 </wgt>
<wgt id='1188'> +7.2675044e+04 </wgt>
<wgt id='1189'> +7.4915870e+04 </wgt>
<wgt id='1190'> +7.3794701e+04 </wgt>
<wgt id='1191'> +7.6855937e+04 </wgt>
<wgt id='1192'> +7.3335940e+04 </wgt>
<wgt id='1193'> +7.1911139e+04 </wgt>
<wgt id='1194'> +7.5395142e+04 </wgt>
<wgt id='1195'> +7.3022444e+04 </wgt>
<wgt id='1196'> +6.8572958e+04 </wgt>
<wgt id='1197'> +7.4191924e+04 </wgt>
<wgt id='1198'> +7.6200379e+04 </wgt>
<wgt id='1199'> +7.7778474e+04 </wgt>
<wgt id='1200'> +7.3747887e+04 </wgt>
<wgt id='1201'> +7.5367225e+04 </wgt>
<wgt id='1202'> +6.4905591e+04 </wgt>
<wgt id='1203'> +7.4046465e+04 </wgt>
<wgt id='1204'> +7.5662525e+04 </wgt>
<wgt id='1205'> +7.3186359e+04 </wgt>
<wgt id='1206'> +7.4255849e+04 </wgt>
<wgt id='1207'> +7.5341950e+04 </wgt>
<wgt id='1208'> +7.5022963e+04 </wgt>
<wgt id='1209'> +7.8316863e+04 </wgt>
<wgt id='1210'> +7.2722705e+04 </wgt>
<wgt id='1211'> +7.3421799e+04 </wgt>
<wgt id='1212'> +7.2501657e+04 </wgt>
<wgt id='1213'> +7.6861643e+04 </wgt>
<wgt id='1214'> +7.4560530e+04 </wgt>
<wgt id='1215'> +6.9440880e+04 </wgt>
<wgt id='1216'> +7.0408044e+04 </wgt>
<wgt id='1217'> +7.1194619e+04 </wgt>
<wgt id='1218'> +7.2746967e+04 </wgt>
<wgt id='1219'> +7.4611735e+04 </wgt>
<wgt id='1220'> +7.5208816e+04 </wgt>
<wgt id='1221'> +7.6804589e+04 </wgt>
<wgt id='1222'> +7.7552358e+04 </wgt>
<wgt id='1223'> +7.3958458e+04 </wgt>
<wgt id='1224'> +7.3603600e+04 </wgt>
<wgt id='1225'> +7.4435958e+04 </wgt>
<wgt id='1226'> +7.3643869e+04 </wgt>
<wgt id='1227'> +7.4367397e+04 </wgt>
<wgt id='1228'> +7.3808012e+04 </wgt>
<wgt id='1229'> +7.3676167e+04 </wgt>
<wgt id='1230'> +7.4015543e+04 </wgt>
<wgt id='1231'> +7.3980777e+04 </wgt>
<wgt id='1232'> +7.4231822e+04 </wgt>
<wgt id='1233'> +7.3739202e+04 </wgt>
<wgt id='1234'> +7.3761977e+04 </wgt>
<wgt id='1235'> +7.4106630e+04 </wgt>
<wgt id='1236'> +7.4134243e+04 </wgt>
<wgt id='1237'> +7.4060969e+04 </wgt>
<wgt id='1238'> +7.3855095e+04 </wgt>
<wgt id='1239'> +7.3908404e+04 </wgt>
<wgt id='1240'> +7.4046371e+04 </wgt>
<wgt id='1241'> +7.4183969e+04 </wgt>
<wgt id='1242'> +7.4013560e+04 </wgt>
<wgt id='1243'> +7.3881927e+04 </wgt>
<wgt id='1244'> +7.4088242e+04 </wgt>
<wgt id='1245'> +7.4011297e+04 </wgt>
<wgt id='1246'> +7.3980608e+04 </wgt>
<wgt id='1247'> +7.4180793e+04 </wgt>
<wgt id='1248'> +7.3714654e+04 </wgt>
<wgt id='1249'> +7.3939475e+04 </wgt>
<wgt id='1250'> +7.3861526e+04 </wgt>
<wgt id='1251'> +7.4179746e+04 </wgt>
<wgt id='1252'> +7.4373515e+04 </wgt>
<wgt id='1253'> +7.2983856e+04 </wgt>
<wgt id='1254'> +7.3596943e+04 </wgt>
<wgt id='1255'> +7.4193811e+04 </wgt>
<wgt id='1256'> +7.3998103e+04 </wgt>
<wgt id='1257'> +7.3848410e+04 </wgt>
<wgt id='1258'> +7.4110445e+04 </wgt>
<wgt id='1259'> +7.4007080e+04 </wgt>
<wgt id='1260'> +7.3786520e+04 </wgt>
<wgt id='1261'> +7.3992104e+04 </wgt>
<wgt id='1262'> +7.4033940e+04 </wgt>
<wgt id='1263'> +7.3918162e+04 </wgt>
<wgt id='1264'> +7.4277097e+04 </wgt>
<wgt id='1265'> +7.3913990e+04 </wgt>
<wgt id='1266'> +7.4002427e+04 </wgt>
<wgt id='1267'> +7.4074158e+04 </wgt>
<wgt id='1268'> +7.3947970e+04 </wgt>
<wgt id='1269'> +7.3927108e+04 </wgt>
<wgt id='1270'> +7.4050415e+04 </wgt>
<wgt id='1271'> +7.4043829e+04 </wgt>
<wgt id='1272'> +7.3676364e+04 </wgt>
<wgt id='1273'> +7.3976073e+04 </wgt>
<wgt id='1274'> +7.4225447e+04 </wgt>
<wgt id='1275'> +7.4090578e+04 </wgt>
<wgt id='1276'> +7.3743003e+04 </wgt>
<wgt id='1277'> +7.3804174e+04 </wgt>
<wgt id='1278'> +7.3913224e+04 </wgt>
<wgt id='1279'> +7.3565739e+04 </wgt>
<wgt id='1280'> +7.3968976e+04 </wgt>
<wgt id='1281'> +7.3865136e+04 </wgt>
<wgt id='1282'> +7.4124531e+04 </wgt>
<wgt id='1283'> +7.3971632e+04 </wgt>
<wgt id='1284'> +7.3881419e+04 </wgt>
<wgt id='1285'> +7.3857258e+04 </wgt>
<wgt id='1286'> +7.3965983e+04 </wgt>
<wgt id='1287'> +7.3868912e+04 </wgt>
<wgt id='1288'> +7.4001960e+04 </wgt>
<wgt id='1289'> +7.4102141e+04 </wgt>
<wgt id='1290'> +7.3895614e+04 </wgt>
<wgt id='1291'> +7.3990678e+04 </wgt>
<wgt id='1292'> +7.3955518e+04 </wgt>
<wgt id='1293'> +7.3821561e+04 </wgt>
<wgt id='1294'> +7.3897977e+04 </wgt>
<wgt id='1295'> +7.3795134e+04 </wgt>
<wgt id='1296'> +7.3813819e+04 </wgt>
<wgt id='1297'> +7.4014781e+04 </wgt>
<wgt id='1298'> +7.4122688e+04 </wgt>
<wgt id='1299'> +7.4071010e+04 </wgt>
<wgt id='1300'> +7.3860467e+04 </wgt>
<wgt id='1301'> +7.3860621e+04 </wgt>
<wgt id='1302'> +7.3918773e+04 </wgt>
<wgt id='1303'> +7.3959328e+04 </wgt>
<wgt id='1304'> +7.3788803e+04 </wgt>
<wgt id='1305'> +7.3962700e+04 </wgt>
<wgt id='1306'> +7.3911809e+04 </wgt>
<wgt id='1307'> +7.4041581e+04 </wgt>
<wgt id='1308'> +7.3952830e+04 </wgt>
<wgt id='1309'> +7.3919612e+04 </wgt>
<wgt id='1310'> +7.4046745e+04 </wgt>
<wgt id='1311'> +7.3947994e+04 </wgt>
<wgt id='1312'> +7.4063339e+04 </wgt>
<wgt id='1313'> +7.3975506e+04 </wgt>
<wgt id='1314'> +7.3903850e+04 </wgt>
<wgt id='1315'> +7.3957006e+04 </wgt>
<wgt id='1316'> +7.3889501e+04 </wgt>
<wgt id='1317'> +7.3898161e+04 </wgt>
<wgt id='1318'> +7.4020913e+04 </wgt>
<wgt id='1319'> +7.4023641e+04 </wgt>
<wgt id='1320'> +7.3943348e+04 </wgt>
<wgt id='1321'> +7.3799774e+04 </wgt>
<wgt id='1322'> +7.4059721e+04 </wgt>
<wgt id='1323'> +7.3974622e+04 </wgt>
<wgt id='1324'> +7.2991630e+04 </wgt>
<wgt id='1325'> +7.5253553e+04 </wgt>
<wgt id='1326'> +7.3681507e+04 </wgt>
<wgt id='1327'> +7.0835287e+04 </wgt>
<wgt id='1328'> +7.2414192e+04 </wgt>
<wgt id='1329'> +7.2930658e+04 </wgt>
<wgt id='1330'> +7.3514249e+04 </wgt>
<wgt id='1331'> +7.1393027e+04 </wgt>
<wgt id='1332'> +7.5179274e+04 </wgt>
<wgt id='1333'> +7.3929219e+04 </wgt>
<wgt id='1334'> +6.9403303e+04 </wgt>
<wgt id='1335'> +6.9241201e+04 </wgt>
<wgt id='1336'> +7.2704410e+04 </wgt>
<wgt id='1337'> +7.3428048e+04 </wgt>
<wgt id='1338'> +7.1805520e+04 </wgt>
<wgt id='1339'> +7.2920886e+04 </wgt>
<wgt id='1340'> +7.2256742e+04 </wgt>
<wgt id='1341'> +7.1142880e+04 </wgt>
<wgt id='1342'> +7.4694274e+04 </wgt>
<wgt id='1343'> +7.1843778e+04 </wgt>
<wgt id='1344'> +7.0265771e+04 </wgt>
<wgt id='1345'> +7.4022387e+04 </wgt>
<wgt id='1346'> +7.2086717e+04 </wgt>
<wgt id='1347'> +7.4081494e+04 </wgt>
<wgt id='1348'> +7.1564188e+04 </wgt>
<wgt id='1349'> +7.3086731e+04 </wgt>
<wgt id='1350'> +7.2020717e+04 </wgt>
<wgt id='1351'> +7.1747859e+04 </wgt>
<wgt id='1352'> +7.2216435e+04 </wgt>
<wgt id='1353'> +7.3457049e+04 </wgt>
<wgt id='1354'> +7.1925198e+04 </wgt>
<wgt id='1355'> +7.4240402e+04 </wgt>
<wgt id='1356'> +7.4169914e+04 </wgt>
<wgt id='1357'> +7.1202015e+04 </wgt>
<wgt id='1358'> +7.1627340e+04 </wgt>
<wgt id='1359'> +7.3017395e+04 </wgt>
<wgt id='1360'> +7.3740393e+04 </wgt>
<wgt id='1361'> +7.5229011e+04 </wgt>
<wgt id='1362'> +7.1897048e+04 </wgt>
<wgt id='1363'> +7.0096683e+04 </wgt>
<wgt id='1364'> +7.1929106e+04 </wgt>
<wgt id='1365'> +7.1120948e+04 </wgt>
<wgt id='1366'> +7.2447428e+04 </wgt>
<wgt id='1367'> +7.3860203e+04 </wgt>
<wgt id='1368'> +7.2427804e+04 </wgt>
<wgt id='1369'> +7.2941109e+04 </wgt>
<wgt id='1370'> +7.1101895e+04 </wgt>
<wgt id='1371'> +7.1495055e+04 </wgt>
<wgt id='1372'> +7.3708035e+04 </wgt>
<wgt id='1373'> +7.1762458e+04 </wgt>
<wgt id='1374'> +7.3286401e+04 </wgt>
<wgt id='1375'> +7.3037370e+04 </wgt>
<wgt id='1376'> +6.9997026e+04 </wgt>
<wgt id='1377'> +7.3099683e+04 </wgt>
<wgt id='1378'> +7.1470913e+04 </wgt>
<wgt id='1379'> +7.4165140e+04 </wgt>
<wgt id='1380'> +7.0000956e+04 </wgt>
<wgt id='1381'> +7.2620954e+04 </wgt>
<wgt id='1382'> +7.0418026e+04 </wgt>
<wgt id='1383'> +7.1625589e+04 </wgt>
<wgt id='1384'> +7.2536973e+04 </wgt>
<wgt id='1385'> +6.6569870e+04 </wgt>
<wgt id='1386'> +7.3999996e+04 </wgt>
<wgt id='1387'> +7.4778694e+04 </wgt>
<wgt id='1388'> +7.3959696e+04 </wgt>
<wgt id='1389'> +7.1838908e+04 </wgt>
<wgt id='1390'> +6.6977468e+04 </wgt>
<wgt id='1391'> +7.1483403e+04 </wgt>
<wgt id='1392'> +7.1208461e+04 </wgt>
<wgt id='1393'> +7.1932336e+04 </wgt>
<wgt id='1394'> +7.1120948e+04 </wgt>
<wgt id='1395'> +7.2783236e+04 </wgt>
<wgt id='1396'> +7.2982343e+04 </wgt>
<wgt id='1397'> +7.3233627e+04 </wgt>
<wgt id='1398'> +7.4385187e+04 </wgt>
<wgt id='1399'> +7.2301741e+04 </wgt>
<wgt id='1400'> +7.3384016e+04 </wgt>
<wgt id='1401'> +7.1763070e+04 </wgt>
<wgt id='1402'> +7.2792323e+04 </wgt>
<wgt id='1403'> +7.4269098e+04 </wgt>
<wgt id='1404'> +7.4170445e+04 </wgt>
<wgt id='1405'> +6.9476979e+04 </wgt>
<wgt id='1406'> +7.1522764e+04 </wgt>
<wgt id='1407'> +7.3388968e+04 </wgt>
<wgt id='1408'> +7.6182870e+04 </wgt>
<wgt id='1409'> +7.3057665e+04 </wgt>
<wgt id='1410'> +7.2962876e+04 </wgt>
<wgt id='1411'> +7.2251886e+04 </wgt>
<wgt id='1412'> +7.3748533e+04 </wgt>
<wgt id='1413'> +7.2645220e+04 </wgt>
<wgt id='1414'> +7.0503459e+04 </wgt>
<wgt id='1415'> +6.9442386e+04 </wgt>
<wgt id='1416'> +7.2621715e+04 </wgt>
<wgt id='1417'> +7.1809716e+04 </wgt>
<wgt id='1418'> +7.5591506e+04 </wgt>
<wgt id='1419'> +7.2601240e+04 </wgt>
<wgt id='1420'> +7.0464029e+04 </wgt>
<wgt id='1421'> +7.2013855e+04 </wgt>
<wgt id='1422'> +7.2906566e+04 </wgt>
<wgt id='1423'> +7.2396830e+04 </wgt>
<wgt id='1424'> +7.3276992e+04 </wgt>
<wgt id='1425'> +7.2454759e+04 </wgt>
<wgt id='1426'> +7.2902523e+04 </wgt>
<wgt id='1427'> +7.2622120e+04 </wgt>
<wgt id='1428'> +7.5700742e+04 </wgt>
<wgt id='1429'> +7.2337034e+04 </wgt>
<wgt id='1430'> +7.2679045e+04 </wgt>
<wgt id='1431'> +7.2498904e+04 </wgt>
<wgt id='1432'> +7.3155384e+04 </wgt>
<wgt id='1433'> +7.2398086e+04 </wgt>
<wgt id='1434'> +7.2325853e+04 </wgt>
<wgt id='1435'> +7.2206375e+04 </wgt>
<wgt id='1436'> +7.1927058e+04 </wgt>
<wgt id='1437'> +7.2806225e+04 </wgt>
<wgt id='1438'> +7.2644567e+04 </wgt>
<wgt id='1439'> +7.1930577e+04 </wgt>
<wgt id='1440'> +7.2486424e+04 </wgt>
<wgt id='1441'> +7.2415815e+04 </wgt>
<wgt id='1442'> +7.2303237e+04 </wgt>
<wgt id='1443'> +7.2535301e+04 </wgt>
<wgt id='1444'> +7.2199736e+04 </wgt>
<wgt id='1445'> +7.1847254e+04 </wgt>
<wgt id='1446'> +7.2762357e+04 </wgt>
<wgt id='1447'> +7.2400080e+04 </wgt>
<wgt id='1448'> +7.2696075e+04 </wgt>
<wgt id='1449'> +7.2407775e+04 </wgt>
<wgt id='1450'> +7.2233601e+04 </wgt>
<wgt id='1451'> +7.2594747e+04 </wgt>
<wgt id='1452'> +7.2662799e+04 </wgt>
<wgt id='1453'> +7.2471777e+04 </wgt>
<wgt id='1454'> +7.2576419e+04 </wgt>
<wgt id='1455'> +7.2138058e+04 </wgt>
<wgt id='1456'> +7.2516379e+04 </wgt>
<wgt id='1457'> +7.2472181e+04 </wgt>
<wgt id='1458'> +7.2518885e+04 </wgt>
<wgt id='1459'> +7.2635561e+04 </wgt>
<wgt id='1460'> +7.2312778e+04 </wgt>
<wgt id='1461'> +7.2437334e+04 </wgt>
<wgt id='1462'> +7.2312540e+04 </wgt>
<wgt id='1463'> +7.2490628e+04 </wgt>
<wgt id='1464'> +7.2517955e+04 </wgt>
<wgt id='1465'> +7.2601803e+04 </wgt>
<wgt id='1466'> +7.2513815e+04 </wgt>
<wgt id='1467'> +7.2379682e+04 </wgt>
<wgt id='1468'> +7.2470948e+04 </wgt>
<wgt id='1469'> +7.2436706e+04 </wgt>
<wgt id='1470'> +7.2396483e+04 </wgt>
<wgt id='1471'> +7.2461428e+04 </wgt>
<wgt id='1472'> +7.2430136e+04 </wgt>
<wgt id='1473'> +7.2552339e+04 </wgt>
<wgt id='1474'> +7.2503797e+04 </wgt>
<wgt id='1475'> +7.2539919e+04 </wgt>
<wgt id='1476'> +7.2476639e+04 </wgt>
<wgt id='1477'> +7.2563048e+04 </wgt>
<wgt id='1478'> +7.2562556e+04 </wgt>
<wgt id='1479'> +7.2564615e+04 </wgt>
<wgt id='1480'> +7.2503460e+04 </wgt>
<wgt id='1481'> +7.2525397e+04 </wgt>
<wgt id='1482'> +7.2337034e+04 </wgt>
<wgt id='1483'> +7.2679045e+04 </wgt>
<wgt id='1484'> +7.5989777e+04 </wgt>
<wgt id='1485'> +7.5216777e+04 </wgt>
<wgt id='1486'> +7.6867724e+04 </wgt>
<wgt id='1487'> +7.3281732e+04 </wgt>
<wgt id='1488'> +7.5767410e+04 </wgt>
<wgt id='1489'> +7.6391448e+04 </wgt>
<wgt id='1490'> +7.2332803e+04 </wgt>
<wgt id='1491'> +7.4896528e+04 </wgt>
<wgt id='1492'> +7.3647753e+04 </wgt>
<wgt id='1493'> +7.5784095e+04 </wgt>
<wgt id='1494'> +7.7041622e+04 </wgt>
<wgt id='1495'> +7.1527684e+04 </wgt>
<wgt id='1496'> +7.2955143e+04 </wgt>
<wgt id='1497'> +7.3973062e+04 </wgt>
<wgt id='1498'> +7.8302481e+04 </wgt>
<wgt id='1499'> +7.7620289e+04 </wgt>
<wgt id='1500'> +7.4190794e+04 </wgt>
<wgt id='1501'> +7.5184410e+04 </wgt>
<wgt id='1502'> +7.6267985e+04 </wgt>
<wgt id='1503'> +7.5642172e+04 </wgt>
<wgt id='1504'> +7.7297484e+04 </wgt>
<wgt id='1505'> +7.6814633e+04 </wgt>
<wgt id='1506'> +7.6533868e+04 </wgt>
<wgt id='1507'> +7.4869662e+04 </wgt>
<wgt id='1508'> +7.3535225e+04 </wgt>
<wgt id='1509'> +7.7319837e+04 </wgt>
<wgt id='1510'> +7.8389486e+04 </wgt>
<wgt id='1511'> +7.6762072e+04 </wgt>
<wgt id='1512'> +7.6150469e+04 </wgt>
<wgt id='1513'> +7.5411343e+04 </wgt>
<wgt id='1514'> +7.5349495e+04 </wgt>
<wgt id='1515'> +7.6313786e+04 </wgt>
<wgt id='1516'> +7.5949863e+04 </wgt>
<wgt id='1517'> +7.7096612e+04 </wgt>
<wgt id='1518'> +7.6153316e+04 </wgt>
<wgt id='1519'> +7.5263305e+04 </wgt>
<wgt id='1520'> +7.7156170e+04 </wgt>
<wgt id='1521'> +7.4651749e+04 </wgt>
<wgt id='1522'> +7.8826649e+04 </wgt>
<wgt id='1523'> +7.7314503e+04 </wgt>
<wgt id='1524'> +7.6958779e+04 </wgt>
<wgt id='1525'> +7.5646613e+04 </wgt>
<wgt id='1526'> +7.5356757e+04 </wgt>
<wgt id='1527'> +7.6582703e+04 </wgt>
<wgt id='1528'> +7.6042736e+04 </wgt>
<wgt id='1529'> +7.6564464e+04 </wgt>
<wgt id='1530'> +7.6889301e+04 </wgt>
<wgt id='1531'> +7.5038276e+04 </wgt>
<wgt id='1532'> +7.6267749e+04 </wgt>
<wgt id='1533'> +7.7716674e+04 </wgt>
<wgt id='1534'> +7.6624890e+04 </wgt>
<wgt id='1535'> +7.6204153e+04 </wgt>
<wgt id='1536'> +7.5406690e+04 </wgt>
<wgt id='1537'> +7.6348921e+04 </wgt>
<wgt id='1538'> +7.5780717e+04 </wgt>
<wgt id='1539'> +7.6520616e+04 </wgt>
<wgt id='1540'> +7.7983456e+04 </wgt>
<wgt id='1541'> +7.6988430e+04 </wgt>
<wgt id='1542'> +7.6133935e+04 </wgt>
<wgt id='1543'> +7.7275180e+04 </wgt>
<wgt id='1544'> +7.7008150e+04 </wgt>
<wgt id='1545'> +7.7006439e+04 </wgt>
<wgt id='1546'> +7.6211337e+04 </wgt>
<wgt id='1547'> +7.6450495e+04 </wgt>
<wgt id='1548'> +7.6809023e+04 </wgt>
<wgt id='1549'> +7.8194061e+04 </wgt>
<wgt id='1550'> +7.8474906e+04 </wgt>
<wgt id='1551'> +7.7933687e+04 </wgt>
<wgt id='1552'> +7.6122496e+04 </wgt>
<wgt id='1553'> +7.8931178e+04 </wgt>
<wgt id='1554'> +7.6060836e+04 </wgt>
<wgt id='1555'> +7.4334513e+04 </wgt>
<wgt id='1556'> +7.3574082e+04 </wgt>
<wgt id='1557'> +7.6597494e+04 </wgt>
<wgt id='1558'> +7.6050098e+04 </wgt>
<wgt id='1559'> +7.7249311e+04 </wgt>
<wgt id='1560'> +7.6856228e+04 </wgt>
<wgt id='1561'> +7.6876747e+04 </wgt>
<wgt id='1562'> +7.6720071e+04 </wgt>
<wgt id='1563'> +7.4735771e+04 </wgt>
<wgt id='1564'> +7.4684819e+04 </wgt>
<wgt id='1565'> +7.5744144e+04 </wgt>
<wgt id='1566'> +7.6091233e+04 </wgt>
<wgt id='1567'> +7.5542712e+04 </wgt>
<wgt id='1568'> +7.6011575e+04 </wgt>
<wgt id='1569'> +7.5946761e+04 </wgt>
<wgt id='1570'> +7.7164851e+04 </wgt>
<wgt id='1571'> +7.4888108e+04 </wgt>
<wgt id='1572'> +7.4481064e+04 </wgt>
<wgt id='1573'> +7.5414325e+04 </wgt>
<wgt id='1574'> +7.4107604e+04 </wgt>
<wgt id='1575'> +7.3434558e+04 </wgt>
<wgt id='1576'> +7.5662918e+04 </wgt>
<wgt id='1577'> +7.2756750e+04 </wgt>
<wgt id='1578'> +7.8102979e+04 </wgt>
<wgt id='1579'> +7.4564078e+04 </wgt>
<wgt id='1580'> +7.7264533e+04 </wgt>
<wgt id='1581'> +7.7423063e+04 </wgt>
<wgt id='1582'> +7.5369172e+04 </wgt>
<wgt id='1583'> +7.6071887e+04 </wgt>
<wgt id='1584'> +7.3930430e+04 </wgt>
<wgt id='1585'> +7.3860850e+04 </wgt>
<wgt id='1586'> +6.3330093e+04 </wgt>
<wgt id='1587'> +7.2205481e+04 </wgt>
<wgt id='1588'> +7.2337034e+04 </wgt>
<wgt id='1589'> +7.2277638e+04 </wgt>
<wgt id='1590'> +7.2300867e+04 </wgt>
<wgt id='1591'> +7.2679045e+04 </wgt>
<wgt id='1592'> +7.2543087e+04 </wgt>
<wgt id='1593'> +7.7127925e+04 </wgt>
<wgt id='1594'> +7.6834249e+04 </wgt>
<wgt id='1595'> +7.5970585e+04 </wgt>
<wgt id='1596'> +7.6639093e+04 </wgt>
<wgt id='1597'> +7.7600559e+04 </wgt>
<wgt id='1598'> +7.5141424e+04 </wgt>
<wgt id='1599'> +7.8834214e+04 </wgt>
<wgt id='1600'> +7.5784850e+04 </wgt>
<wgt id='1601'> +7.8648554e+04 </wgt>
<wgt id='1602'> +7.7353188e+04 </wgt>
<wgt id='1603'> +7.7261105e+04 </wgt>
<wgt id='1604'> +7.9205773e+04 </wgt>
<wgt id='1605'> +7.5726609e+04 </wgt>
<wgt id='1606'> +7.5835887e+04 </wgt>
<wgt id='1607'> +7.8350594e+04 </wgt>
<wgt id='1608'> +7.6398843e+04 </wgt>
<wgt id='1609'> +7.7253895e+04 </wgt>
<wgt id='1610'> +7.7522757e+04 </wgt>
<wgt id='1611'> +7.6574498e+04 </wgt>
<wgt id='1612'> +7.8406009e+04 </wgt>
<wgt id='1613'> +7.5250979e+04 </wgt>
<wgt id='1614'> +7.7234926e+04 </wgt>
<wgt id='1615'> +7.7062413e+04 </wgt>
<wgt id='1616'> +7.6902202e+04 </wgt>
<wgt id='1617'> +7.6812187e+04 </wgt>
<wgt id='1618'> +7.7165651e+04 </wgt>
<wgt id='1619'> +7.7075769e+04 </wgt>
<wgt id='1620'> +7.6830987e+04 </wgt>
<wgt id='1621'> +7.7347609e+04 </wgt>
<wgt id='1622'> +7.7113941e+04 </wgt>
<wgt id='1623'> +7.6445602e+04 </wgt>
<wgt id='1624'> +7.7694100e+04 </wgt>
<wgt id='1625'> +7.6200280e+04 </wgt>
<wgt id='1626'> +7.6258075e+04 </wgt>
<wgt id='1627'> +7.7876374e+04 </wgt>
<wgt id='1628'> +7.6761259e+04 </wgt>
<wgt id='1629'> +7.7701412e+04 </wgt>
<wgt id='1630'> +7.6772738e+04 </wgt>
<wgt id='1631'> +7.6825535e+04 </wgt>
<wgt id='1632'> +7.6713250e+04 </wgt>
<wgt id='1633'> +7.7461936e+04 </wgt>
<wgt id='1634'> +7.7750265e+04 </wgt>
<wgt id='1635'> +7.6682742e+04 </wgt>
<wgt id='1636'> +7.6681208e+04 </wgt>
<wgt id='1637'> +7.8021653e+04 </wgt>
<wgt id='1638'> +7.7188974e+04 </wgt>
<wgt id='1639'> +7.7120721e+04 </wgt>
<wgt id='1640'> +7.7834540e+04 </wgt>
<wgt id='1641'> +7.6539681e+04 </wgt>
<wgt id='1642'> +7.7420833e+04 </wgt>
<wgt id='1643'> +7.6753978e+04 </wgt>
<wgt id='1644'> +7.8070380e+04 </wgt>
<wgt id='1645'> +7.6071450e+04 </wgt>
<wgt id='1646'> +7.6896281e+04 </wgt>
<wgt id='1647'> +7.8297786e+04 </wgt>
<wgt id='1648'> +7.7165043e+04 </wgt>
<wgt id='1649'> +7.7810266e+04 </wgt>
<wgt id='1650'> +7.8407362e+04 </wgt>
<wgt id='1651'> +7.5638402e+04 </wgt>
<wgt id='1652'> +7.6626019e+04 </wgt>
<wgt id='1653'> +7.6878297e+04 </wgt>
<wgt id='1654'> +7.7379399e+04 </wgt>
<wgt id='1655'> +7.7639115e+04 </wgt>
<wgt id='1656'> +7.8282937e+04 </wgt>
<wgt id='1657'> +7.7418480e+04 </wgt>
<wgt id='1658'> +7.8097441e+04 </wgt>
<wgt id='1659'> +7.9394612e+04 </wgt>
<wgt id='1660'> +7.8876871e+04 </wgt>
<wgt id='1661'> +7.8478464e+04 </wgt>
<wgt id='1662'> +7.7661423e+04 </wgt>
<wgt id='1663'> +7.8368624e+04 </wgt>
<wgt id='1664'> +7.7598318e+04 </wgt>
<wgt id='1665'> +7.8135927e+04 </wgt>
<wgt id='1666'> +7.9059426e+04 </wgt>
<wgt id='1667'> +7.7830176e+04 </wgt>
<wgt id='1668'> +7.8945483e+04 </wgt>
<wgt id='1669'> +7.8792143e+04 </wgt>
<wgt id='1670'> +7.8226192e+04 </wgt>
<wgt id='1671'> +7.9525977e+04 </wgt>
<wgt id='1672'> +7.7071373e+04 </wgt>
<wgt id='1673'> +8.0131277e+04 </wgt>
<wgt id='1674'> +7.7966905e+04 </wgt>
<wgt id='1675'> +7.8939837e+04 </wgt>
<wgt id='1676'> +7.7986482e+04 </wgt>
<wgt id='1677'> +7.8334346e+04 </wgt>
<wgt id='1678'> +7.8968386e+04 </wgt>
<wgt id='1679'> +7.7796165e+04 </wgt>
<wgt id='1680'> +7.9439132e+04 </wgt>
<wgt id='1681'> +7.8222774e+04 </wgt>
<wgt id='1682'> +7.7945112e+04 </wgt>
<wgt id='1683'> +7.8106346e+04 </wgt>
<wgt id='1684'> +7.8398125e+04 </wgt>
<wgt id='1685'> +7.9235855e+04 </wgt>
<wgt id='1686'> +7.7144279e+04 </wgt>
<wgt id='1687'> +7.8692647e+04 </wgt>
<wgt id='1688'> +7.7469101e+04 </wgt>
<wgt id='1689'> +7.7859711e+04 </wgt>
<wgt id='1690'> +8.0148402e+04 </wgt>
<wgt id='1691'> +7.8599974e+04 </wgt>
<wgt id='1692'> +7.8430622e+04 </wgt>
<wgt id='1693'> +7.8509548e+04 </wgt>
<wgt id='1694'> +7.8698669e+04 </wgt>
<wgt id='1695'> +7.7685523e+04 </wgt>
<wgt id='1696'> +7.8817002e+04 </wgt>
<wgt id='1697'> +7.9228704e+04 </wgt>
<wgt id='1698'> +7.7481042e+04 </wgt>
<wgt id='1699'> +7.7204748e+04 </wgt>
<wgt id='1700'> +7.9515985e+04 </wgt>
<wgt id='1701'> +7.6739873e+04 </wgt>
<wgt id='1702'> +8.0096959e+04 </wgt>
<wgt id='1703'> +7.7849509e+04 </wgt>
<wgt id='1704'> +7.9425042e+04 </wgt>
<wgt id='1705'> +7.7657656e+04 </wgt>
<wgt id='1706'> +7.9418587e+04 </wgt>
<wgt id='1707'> +7.6993641e+04 </wgt>
<wgt id='1708'> +7.9213085e+04 </wgt>
<wgt id='1709'> +7.7713385e+04 </wgt>
<wgt id='1710'> +7.9058375e+04 </wgt>
<wgt id='1711'> +7.8101361e+04 </wgt>
<wgt id='1712'> +7.8281524e+04 </wgt>
<wgt id='1713'> +7.9292973e+04 </wgt>
<wgt id='1714'> +7.6959632e+04 </wgt>
<wgt id='1715'> +7.5800957e+04 </wgt>
<wgt id='1716'> +7.8092555e+04 </wgt>
<wgt id='1717'> +7.2849165e+04 </wgt>
<wgt id='1718'> +7.2947257e+04 </wgt>
<wgt id='1719'> +7.2722560e+04 </wgt>
<wgt id='1720'> +7.2888223e+04 </wgt>
<wgt id='1721'> +7.2813489e+04 </wgt>
<wgt id='1722'> +7.2906023e+04 </wgt>
<wgt id='1723'> +7.2755665e+04 </wgt>
<wgt id='1724'> +7.2964667e+04 </wgt>
<wgt id='1725'> +7.2754991e+04 </wgt>
<wgt id='1726'> +7.2720250e+04 </wgt>
<wgt id='1727'> +7.2981908e+04 </wgt>
<wgt id='1728'> +7.1947607e+04 </wgt>
<wgt id='1729'> +7.3727959e+04 </wgt>
<wgt id='1730'> +7.2763384e+04 </wgt>
<wgt id='1731'> +7.2909817e+04 </wgt>
<wgt id='1732'> +7.3291955e+04 </wgt>
<wgt id='1733'> +7.3291955e+04 </wgt>
<wgt id='1734'> +7.2411292e+04 </wgt>
<wgt id='1735'> +7.3142727e+04 </wgt>
<wgt id='1736'> +7.2576880e+04 </wgt>
<wgt id='1737'> +7.3225045e+04 </wgt>
<wgt id='1738'> +7.2968364e+04 </wgt>
<wgt id='1739'> +7.2574521e+04 </wgt>
<wgt id='1740'> +7.2910335e+04 </wgt>
<wgt id='1741'> +7.2693963e+04 </wgt>
<wgt id='1742'> +7.2711705e+04 </wgt>
<wgt id='1743'> +7.3001955e+04 </wgt>
<wgt id='1744'> +7.2880701e+04 </wgt>
<wgt id='1745'> +7.2762399e+04 </wgt>
<wgt id='1746'> +7.2590428e+04 </wgt>
<wgt id='1747'> +7.2967429e+04 </wgt>
<wgt id='1748'> +7.3210689e+04 </wgt>
<wgt id='1749'> +7.1677632e+04 </wgt>
<wgt id='1750'> +7.3150840e+04 </wgt>
<wgt id='1751'> +7.2527434e+04 </wgt>
<wgt id='1752'> +7.2589222e+04 </wgt>
<wgt id='1753'> +7.3207059e+04 </wgt>
<wgt id='1754'> +7.3328311e+04 </wgt>
<wgt id='1755'> +7.2586748e+04 </wgt>
<wgt id='1756'> +7.2375809e+04 </wgt>
<wgt id='1757'> +7.4021191e+04 </wgt>
<wgt id='1758'> +7.2607524e+04 </wgt>
<wgt id='1759'> +7.2830691e+04 </wgt>
<wgt id='1760'> +7.3212745e+04 </wgt>
<wgt id='1761'> +7.2542656e+04 </wgt>
<wgt id='1762'> +7.2655105e+04 </wgt>
<wgt id='1763'> +7.3377108e+04 </wgt>
<wgt id='1764'> +7.2845697e+04 </wgt>
<wgt id='1765'> +7.2817407e+04 </wgt>
<wgt id='1766'> +7.2868619e+04 </wgt>
<wgt id='1767'> +7.2707468e+04 </wgt>
<wgt id='1768'> +7.2904834e+04 </wgt>
<wgt id='1769'> +7.2815021e+04 </wgt>
<wgt id='1770'> +7.2622444e+04 </wgt>
<wgt id='1771'> +7.3183997e+04 </wgt>
<wgt id='1772'> +7.2921841e+04 </wgt>
<wgt id='1773'> +7.2960014e+04 </wgt>
<wgt id='1774'> +7.1876115e+04 </wgt>
<wgt id='1775'> +7.3459303e+04 </wgt>
<wgt id='1776'> +7.2395044e+04 </wgt>
<wgt id='1777'> +7.3057232e+04 </wgt>
<wgt id='1778'> +7.2546245e+04 </wgt>
<wgt id='1779'> +7.3029420e+04 </wgt>
<wgt id='1780'> +7.3413460e+04 </wgt>
<wgt id='1781'> +7.2848044e+04 </wgt>
<wgt id='1782'> +7.2849165e+04 </wgt>
<wgt id='1783'> +7.2982422e+04 </wgt>
<wgt id='1784'> +7.4037820e+04 </wgt>
<wgt id='1785'> +7.3691990e+04 </wgt>
<wgt id='1786'> +7.2363615e+04 </wgt>
<wgt id='1787'> +7.3935963e+04 </wgt>
<wgt id='1788'> +7.4196612e+04 </wgt>
<wgt id='1789'> +7.4079324e+04 </wgt>
<wgt id='1790'> +7.3380437e+04 </wgt>
<wgt id='1791'> +7.3869828e+04 </wgt>
<wgt id='1792'> +7.3685194e+04 </wgt>
<wgt id='1793'> +7.4126621e+04 </wgt>
<wgt id='1794'> +7.4584721e+04 </wgt>
<wgt id='1795'> +7.3541107e+04 </wgt>
<wgt id='1796'> +7.3939064e+04 </wgt>
<wgt id='1797'> +7.4126344e+04 </wgt>
<wgt id='1798'> +7.3878254e+04 </wgt>
<wgt id='1799'> +7.4641654e+04 </wgt>
<wgt id='1800'> +7.4847901e+04 </wgt>
<wgt id='1801'> +7.4807730e+04 </wgt>
<wgt id='1802'> +7.3970305e+04 </wgt>
<wgt id='1803'> +7.4287496e+04 </wgt>
<wgt id='1804'> +7.2999576e+04 </wgt>
<wgt id='1805'> +7.3997912e+04 </wgt>
<wgt id='1806'> +7.3888631e+04 </wgt>
<wgt id='1807'> +7.4102530e+04 </wgt>
<wgt id='1808'> +7.4049844e+04 </wgt>
<wgt id='1809'> +7.3128151e+04 </wgt>
<wgt id='1810'> +7.3875618e+04 </wgt>
<wgt id='1811'> +7.3662793e+04 </wgt>
<wgt id='1812'> +7.3922291e+04 </wgt>
<wgt id='1813'> +7.3402239e+04 </wgt>
<wgt id='1814'> +7.3848049e+04 </wgt>
<wgt id='1815'> +7.4063967e+04 </wgt>
<wgt id='1816'> +7.3783000e+04 </wgt>
<wgt id='1817'> +7.3738109e+04 </wgt>
<wgt id='1818'> +7.4004490e+04 </wgt>
<wgt id='1819'> +7.4289166e+04 </wgt>
<wgt id='1820'> +7.3771014e+04 </wgt>
<wgt id='1821'> +7.4076006e+04 </wgt>
<wgt id='1822'> +7.4105762e+04 </wgt>
<wgt id='1823'> +7.3780855e+04 </wgt>
<wgt id='1824'> +7.5146940e+04 </wgt>
<wgt id='1825'> +7.3737514e+04 </wgt>
<wgt id='1826'> +7.4793247e+04 </wgt>
<wgt id='1827'> +8.0294452e+04 </wgt>
<wgt id='1828'> +8.0416211e+04 </wgt>
<wgt id='1829'> +8.0145248e+04 </wgt>
<wgt id='1830'> +8.0402837e+04 </wgt>
<wgt id='1831'> +8.0157347e+04 </wgt>
<wgt id='1832'> +8.0346931e+04 </wgt>
<wgt id='1833'> +8.0213911e+04 </wgt>
<wgt id='1834'> +7.9919216e+04 </wgt>
<wgt id='1835'> +8.0624390e+04 </wgt>
<wgt id='1836'> +8.0334935e+04 </wgt>
<wgt id='1837'> +8.0207057e+04 </wgt>
<wgt id='1838'> +7.9720189e+04 </wgt>
<wgt id='1839'> +8.0796138e+04 </wgt>
<wgt id='1840'> +8.0339367e+04 </wgt>
<wgt id='1841'> +8.0230967e+04 </wgt>
<wgt id='1842'> +8.0415216e+04 </wgt>
<wgt id='1843'> +8.0526764e+04 </wgt>
<wgt id='1844'> +7.9597117e+04 </wgt>
<wgt id='1845'> +8.0936498e+04 </wgt>
<wgt id='1846'> +7.8453222e+04 </wgt>
<wgt id='1847'> +8.2026010e+04 </wgt>
<wgt id='1848'> +8.0330473e+04 </wgt>
<wgt id='1849'> +8.0117037e+04 </wgt>
<wgt id='1850'> +8.1078849e+04 </wgt>
<wgt id='1851'> +7.9521753e+04 </wgt>
<wgt id='1852'> +8.0612926e+04 </wgt>
<wgt id='1853'> +8.0033985e+04 </wgt>
<wgt id='1854'> +8.0263962e+04 </wgt>
<wgt id='1855'> +8.0444471e+04 </wgt>
<wgt id='1856'> +7.4211035e+04 </wgt>
<wgt id='1857'> +7.4197189e+04 </wgt>
<wgt id='1858'> +7.4107627e+04 </wgt>
<wgt id='1859'> +7.4185314e+04 </wgt>
<wgt id='1860'> +7.4211638e+04 </wgt>
<wgt id='1861'> +7.4197594e+04 </wgt>
<wgt id='1862'> +7.3875716e+04 </wgt>
<wgt id='1863'> +7.4232279e+04 </wgt>
<wgt id='1864'> +7.4128584e+04 </wgt>
<wgt id='1865'> +7.3866859e+04 </wgt>
<wgt id='1866'> +7.4239025e+04 </wgt>
<wgt id='1867'> +7.4195436e+04 </wgt>
<wgt id='1868'> +7.4291777e+04 </wgt>
<wgt id='1869'> +7.4325037e+04 </wgt>
<wgt id='1870'> +7.3926265e+04 </wgt>
<wgt id='1871'> +7.3972333e+04 </wgt>
<wgt id='1872'> +7.3926404e+04 </wgt>
<wgt id='1873'> +7.4109525e+04 </wgt>
<wgt id='1874'> +7.3967849e+04 </wgt>
<wgt id='1875'> +7.4331411e+04 </wgt>
<wgt id='1876'> +7.3993030e+04 </wgt>
<wgt id='1877'> +7.3705924e+04 </wgt>
<wgt id='1878'> +7.4142439e+04 </wgt>
<wgt id='1879'> +7.4753385e+04 </wgt>
<wgt id='1880'> +7.4618811e+04 </wgt>
<wgt id='1881'> +7.4098163e+04 </wgt>
<wgt id='1882'> +7.4192223e+04 </wgt>
<wgt id='1883'> +7.4688295e+04 </wgt>
<wgt id='1884'> +7.3600328e+04 </wgt>
<wgt id='1885'> +7.3427555e+04 </wgt>
<wgt id='1886'> +7.5166723e+04 </wgt>
<wgt id='1887'> +7.9254386e+04 </wgt>
<wgt id='1888'> +6.5239964e+04 </wgt>
<wgt id='1889'> +7.8385155e+04 </wgt>
</rwgt>
</event>
<event npLO=" -1 " npNLO=" 0 ">
 5      1 +7.4519530e+04 2.67176760e+01 7.55820760e-03 1.20759380e-01
        1 -1    0    0  501    0 +0.0000000000e+00 +0.0000000000e+00 +4.3796748431e+02 4.3796748431e+02 0.0000000000e+00 0.0000e+00 -1.0000e+00
       -2 -1    0    0    0  501 +0.0000000000e+00 +0.0000000000e+00 -3.4722066641e+00 3.4722066641e+00 0.0000000000e+00 0.0000e+00 1.0000e+00
      -24  2    1    2    0    0 +0.0000000000e+00 +0.0000000000e+00 +4.3449527765e+02 4.4143969098e+02 7.7992656518e+01 0.0000e+00 0.0000e+00
       11  1    3    3    0    0 +3.3631054342e+00 -3.3381891035e+01 +3.2974570782e+02 3.3144817536e+02 0.0000000000e+00 0.0000e+00 -1.0000e+00
      -12  1    3    3    0    0 -3.3631054342e+00 +3.3381891035e+01 +1.0474956983e+02 1.0999151561e+02 0.0000000000e+00 0.0000e+00 1.0000e+00
#aMCatNLO 1  0  0  1  2 0.10972916E+02 0.00000000E+00 -9  5  0 0.00000000E+00 0.00000000E+00 0.00000000E+00 0.00000000E+00 0.00000000E+00
<rwgt>
<wgt id='1001'> +7.4519530e+04 </wgt>
<wgt id='1002'> +7.1261447e+04 </wgt>
<wgt id='1003'> +7.8582702e+04 </wgt>
<wgt id='1004'> +9.4220541e+04 </wgt>
<wgt id='1005'> +8.9489227e+04 </wgt>
<wgt id='1006'> +1.0012134e+05 </wgt>
<wgt id='1007'> +5.7240863e+04 </wgt>
<wgt id='1008'> +5.5183112e+04 </wgt>
<wgt id='1009'> +5.9806843e+04 </wgt>
<wgt id='1010'> +7.4519530e+04 </wgt>
<wgt id='1011'> +7.4649552e+04 </wgt>
<wgt id='1012'> +7.4287900e+04 </wgt>
<wgt id='1013'> +7.4334248e+04 </wgt>
<wgt id='1014'> +7.4735140e+04 </wgt>
<wgt id='1015'> +7.4473710e+04 </wgt>
<wgt id='1016'> +7.4397856e+04 </wgt>
<wgt id='1017'> +7.4503716e+04 </wgt>
<wgt id='1018'> +7.3973935e+04 </wgt>
<wgt id='1019'> +7.4762007e+04 </wgt>
<wgt id='1020'> +7.4334241e+04 </wgt>
<wgt id='1021'> +7.4625393e+04 </wgt>
<wgt id='1022'> +7.4563814e+04 </wgt>
<wgt id='1023'> +7.4622263e+04 </wgt>
<wgt id='1024'> +7.4630055e+04 </wgt>
<wgt id='1025'> +7.5157489e+04 </wgt>
<wgt id='1026'> +7.4319020e+04 </wgt>
<wgt id='1027'> +7.4572071e+04 </wgt>
<wgt id='1028'> +7.4389853e+04 </wgt>
<wgt id='1029'> +7.4676061e+04 </wgt>
<wgt id='1030'> +7.4364676e+04 </wgt>
<wgt id='1031'> +7.4566974e+04 </wgt>
<wgt id='1032'> +7.4868916e+04 </wgt>
<wgt id='1033'> +7.4410274e+04 </wgt>
<wgt id='1034'> +7.4603237e+04 </wgt>
<wgt id='1035'> +7.4437725e+04 </wgt>
<wgt id='1036'> +7.4362506e+04 </wgt>
<wgt id='1037'> +7.5249978e+04 </wgt>
<wgt id='1038'> +7.4723695e+04 </wgt>
<wgt id='1039'> +7.4976673e+04 </wgt>
<wgt id='1040'> +7.4499232e+04 </wgt>
<wgt id='1041'> +7.5398794e+04 </wgt>
<wgt id='1042'> +7.4353620e+04 </wgt>
<wgt id='1043'> +7.4828504e+04 </wgt>
<wgt id='1044'> +7.4750872e+04 </wgt>
<wgt id='1045'> +7.4565249e+04 </wgt>
<wgt id='1046'> +7.4481676e+04 </wgt>
<wgt id='1047'> +7.4438176e+04 </wgt>
<wgt id='1048'> +7.4547286e+04 </wgt>
<wgt id='1049'> +7.4823640e+04 </wgt>
<wgt id='1050'> +7.4438242e+04 </wgt>
<wgt id='1051'> +7.4818801e+04 </wgt>
<wgt id='1052'> +7.4602914e+04 </wgt>
<wgt id='1053'> +7.4524937e+04 </wgt>
<wgt id='1054'> +7.4178296e+04 </wgt>
<wgt id='1055'> +7.4331766e+04 </wgt>
<wgt id='1056'> +7.4682151e+04 </wgt>
<wgt id='1057'> +7.4310165e+04 </wgt>
<wgt id='1058'> +7.4577248e+04 </wgt>
<wgt id='1059'> +7.4532097e+04 </wgt>
<wgt id='1060'> +7.4386393e+04 </wgt>
<wgt id='1061'> +7.4391378e+04 </wgt>
<wgt id='1062'> +7.4633041e+04 </wgt>
<wgt id='1063'> +7.4849392e+04 </wgt>
<wgt id='1064'> +7.4710802e+04 </wgt>
<wgt id='1065'> +7.4415218e+04 </wgt>
<wgt id='1066'> +7.4528421e+04 </wgt>
<wgt id='1067'> +7.4752463e+04 </wgt>
<wgt id='1068'> +7.4531599e+04 </wgt>
<wgt id='1069'> +7.4682029e+04 </wgt>
<wgt id='1070'> +7.4536081e+04 </wgt>
<wgt id='1071'> +7.4667121e+04 </wgt>
<wgt id='1072'> +7.4503539e+04 </wgt>
<wgt id='1073'> +7.4422710e+04 </wgt>
<wgt id='1074'> +7.4419826e+04 </wgt>
<wgt id='1075'> +7.4672088e+04 </wgt>
<wgt id='1076'> +7.4560156e+04 </wgt>
<wgt id='1077'> +7.4503193e+04 </wgt>
<wgt id='1078'> +7.4536243e+04 </wgt>
<wgt id='1079'> +7.4622113e+04 </wgt>
<wgt id='1080'> +7.4707050e+04 </wgt>
<wgt id='1081'> +7.4498298e+04 </wgt>
<wgt id='1082'> +7.4528876e+04 </wgt>
<wgt id='1083'> +7.4399031e+04 </wgt>
<wgt id='1084'> +7.4595043e+04 </wgt>
<wgt id='1085'> +7.4448617e+04 </wgt>
<wgt id='1086'> +7.4581066e+04 </wgt>
<wgt id='1087'> +7.4499922e+04 </wgt>
<wgt id='1088'> +7.4430398e+04 </wgt>
<wgt id='1089'> +7.4517723e+04 </wgt>
<wgt id='1090'> +7.4473003e+04 </wgt>
<wgt id='1091'> +7.4486783e+04 </wgt>
<wgt id='1092'> +7.4538291e+04 </wgt>
<wgt id='1093'> +7.4396727e+04 </wgt>
<wgt id='1094'> +7.4559145e+04 </wgt>
<wgt id='1095'> +7.4403423e+04 </wgt>
<wgt id='1096'> +7.4511772e+04 </wgt>
<wgt id='1097'> +7.4461447e+04 </wgt>
<wgt id='1098'> +7.4508535e+04 </wgt>
<wgt id='1099'> +7.4540473e+04 </wgt>
<wgt id='1100'> +7.4598588e+04 </wgt>
<wgt id='1101'> +7.4531352e+04 </wgt>
<wgt id='1102'> +7.4439863e+04 </wgt>
<wgt id='1103'> +7.4396721e+04 </wgt>
<wgt id='1104'> +7.4561702e+04 </wgt>
<wgt id='1105'> +7.4468795e+04 </wgt>
<wgt id='1106'> +7.4422064e+04 </wgt>
<wgt id='1107'> +7.4496619e+04 </wgt>
<wgt id='1108'> +7.4605917e+04 </wgt>
<wgt id='1109'> +7.4455032e+04 </wgt>
<wgt id='1110'> +7.4519529e+04 </wgt>
<wgt id='1111'> +7.2934143e+04 </wgt>
<wgt id='1112'> +7.5619460e+04 </wgt>
<wgt id='1113'> +7.4519529e+04 </wgt>
<wgt id='1114'> +7.9749559e+04 </wgt>
<wgt id='1115'> +7.5564577e+04 </wgt>
<wgt id='1116'> +7.4637451e+04 </wgt>
<wgt id='1117'> +7.1880240e+04 </wgt>
<wgt id='1118'> +7.3256078e+04 </wgt>
<wgt id='1119'> +7.5507200e+04 </wgt>
<wgt id='1120'> +7.5632456e+04 </wgt>
<wgt id='1121'> +7.4648727e+04 </wgt>
<wgt id='1122'> +7.4411144e+04 </wgt>
<wgt id='1123'> +7.2560632e+04 </wgt>
<wgt id='1124'> +7.3599300e+04 </wgt>
<wgt id='1125'> +7.2155075e+04 </wgt>
<wgt id='1126'> +7.3517282e+04 </wgt>
<wgt id='1127'> +7.5825635e+04 </wgt>
<wgt id='1128'> +7.5406587e+04 </wgt>
<wgt id='1129'> +7.4100827e+04 </wgt>
<wgt id='1130'> +7.5992270e+04 </wgt>
<wgt id='1131'> +7.4308209e+04 </wgt>
<wgt id='1132'> +7.5630969e+04 </wgt>
<wgt id='1133'> +7.2581254e+04 </wgt>
<wgt id='1134'> +7.5134533e+04 </wgt>
<wgt id='1135'> +7.5812479e+04 </wgt>
<wgt id='1136'> +7.6849948e+04 </wgt>
<wgt id='1137'> +7.2870778e+04 </wgt>
<wgt id='1138'> +7.4708352e+04 </wgt>
<wgt id='1139'> +7.5821011e+04 </wgt>
<wgt id='1140'> +7.7926983e+04 </wgt>
<wgt id='1141'> +7.5085770e+04 </wgt>
<wgt id='1142'> +7.4452235e+04 </wgt>
<wgt id='1143'> +7.7655423e+04 </wgt>
<wgt id='1144'> +7.5133905e+04 </wgt>
<wgt id='1145'> +7.2481142e+04 </wgt>
<wgt id='1146'> +7.5010324e+04 </wgt>
<wgt id='1147'> +7.1623078e+04 </wgt>
<wgt id='1148'> +7.3670073e+04 </wgt>
<wgt id='1149'> +7.5173147e+04 </wgt>
<wgt id='1150'> +7.3541021e+04 </wgt>
<wgt id='1151'> +7.3202946e+04 </wgt>
<wgt id='1152'> +7.3865853e+04 </wgt>
<wgt id='1153'> +7.3028926e+04 </wgt>
<wgt id='1154'> +7.3709299e+04 </wgt>
<wgt id='1155'> +7.5545377e+04 </wgt>
<wgt id='1156'> +7.4754254e+04 </wgt>
<wgt id='1157'> +7.4522026e+04 </wgt>
<wgt id='1158'> +7.3963456e+04 </wgt>
<wgt id='1159'> +7.2368177e+04 </wgt>
<wgt id='1160'> +7.3783167e+04 </wgt>
<wgt id='1161'> +7.6556043e+04 </wgt>
<wgt id='1162'> +7.7419575e+04 </wgt>
<wgt id='1163'> +7.3551802e+04 </wgt>
<wgt id='1164'> +7.5843352e+04 </wgt>
<wgt id='1165'> +7.4675550e+04 </wgt>
<wgt id='1166'> +7.5418384e+04 </wgt>
<wgt id='1167'> +7.6754050e+04 </wgt>
<wgt id='1168'> +7.5660450e+04 </wgt>
<wgt id='1169'> +7.5672252e+04 </wgt>
<wgt id='1170'> +7.8279677e+04 </wgt>
<wgt id='1171'> +7.6129626e+04 </wgt>
<wgt id='1172'> +7.6023967e+04 </wgt>
<wgt id='1173'> +7.6363307e+04 </wgt>
<wgt id='1174'> +7.3427836e+04 </wgt>
<wgt id='1175'> +7.3899839e+04 </wgt>
<wgt id='1176'> +7.3518876e+04 </wgt>
<wgt id='1177'> +7.3231932e+04 </wgt>
<wgt id='1178'> +7.5108196e+04 </wgt>
<wgt id='1179'> +7.8216766e+04 </wgt>
<wgt id='1180'> +7.3699472e+04 </wgt>
<wgt id='1181'> +7.5274816e+04 </wgt>
<wgt id='1182'> +7.3076508e+04 </wgt>
<wgt id='1183'> +7.4565613e+04 </wgt>
<wgt id='1184'> +7.4290379e+04 </wgt>
<wgt id='1185'> +7.7928897e+04 </wgt>
<wgt id='1186'> +7.0604695e+04 </wgt>
<wgt id='1187'> +7.1567775e+04 </wgt>
<wgt id='1188'> +7.2900589e+04 </wgt>
<wgt id='1189'> +7.4888539e+04 </wgt>
<wgt id='1190'> +7.1250254e+04 </wgt>
<wgt id='1191'> +7.5894663e+04 </wgt>
<wgt id='1192'> +7.2208208e+04 </wgt>
<wgt id='1193'> +7.2887532e+04 </wgt>
<wgt id='1194'> +7.3931710e+04 </wgt>
<wgt id='1195'> +7.4100827e+04 </wgt>
<wgt id='1196'> +7.0973185e+04 </wgt>
<wgt id='1197'> +7.3938252e+04 </wgt>
<wgt id='1198'> +7.2612895e+04 </wgt>
<wgt id='1199'> +8.0861612e+04 </wgt>
<wgt id='1200'> +7.4164300e+04 </wgt>
<wgt id='1201'> +7.4740287e+04 </wgt>
<wgt id='1202'> +6.6134790e+04 </wgt>
<wgt id='1203'> +7.2074031e+04 </wgt>
<wgt id='1204'> +7.6194715e+04 </wgt>
<wgt id='1205'> +7.3549371e+04 </wgt>
<wgt id='1206'> +7.4727672e+04 </wgt>
<wgt id='1207'> +7.6956179e+04 </wgt>
<wgt id='1208'> +7.4038297e+04 </wgt>
<wgt id='1209'> +7.5371071e+04 </wgt>
<wgt id='1210'> +7.4206069e+04 </wgt>
<wgt id='1211'> +7.3817905e+04 </wgt>
<wgt id='1212'> +7.5314196e+04 </wgt>
<wgt id='1213'> +7.4789392e+04 </wgt>
<wgt id='1214'> +7.4333004e+04 </wgt>
<wgt id='1215'> +6.9208289e+04 </wgt>
<wgt id='1216'> +6.9894538e+04 </wgt>
<wgt id='1217'> +7.0892867e+04 </wgt>
<wgt id='1218'> +7.2375261e+04 </wgt>
<wgt id='1219'> +7.4027532e+04 </wgt>
<wgt id='1220'> +7.5012732e+04 </wgt>
<wgt id='1221'> +7.6718580e+04 </wgt>
<wgt id='1222'> +7.7500850e+04 </wgt>
<wgt id='1223'> +7.2699448e+04 </wgt>
<wgt id='1224'> +7.2513977e+04 </wgt>
<wgt id='1225'> +7.2998893e+04 </wgt>
<wgt id='1226'> +7.2527503e+04 </wgt>
<wgt id='1227'> +7.3043754e+04 </wgt>
<wgt id='1228'> +7.2643956e+04 </wgt>
<wgt id='1229'> +7.2398757e+04 </wgt>
<wgt id='1230'> +7.2671422e+04 </wgt>
<wgt id='1231'> +7.2694880e+04 </wgt>
<wgt id='1232'> +7.2854593e+04 </wgt>
<wgt id='1233'> +7.2407666e+04 </wgt>
<wgt id='1234'> +7.2548479e+04 </wgt>
<wgt id='1235'> +7.2788541e+04 </wgt>
<wgt id='1236'> +7.2832921e+04 </wgt>
<wgt id='1237'> +7.2893217e+04 </wgt>
<wgt id='1238'> +7.2446229e+04 </wgt>
<wgt id='1239'> +7.2747015e+04 </wgt>
<wgt id='1240'> +7.2644069e+04 </wgt>
<wgt id='1241'> +7.2901101e+04 </wgt>
<wgt id='1242'> +7.2752885e+04 </wgt>
<wgt id='1243'> +7.2485540e+04 </wgt>
<wgt id='1244'> +7.2985519e+04 </wgt>
<wgt id='1245'> +7.2759983e+04 </wgt>
<wgt id='1246'> +7.2805515e+04 </wgt>
<wgt id='1247'> +7.3108459e+04 </wgt>
<wgt id='1248'> +7.2356180e+04 </wgt>
<wgt id='1249'> +7.2719364e+04 </wgt>
<wgt id='1250'> +7.2586459e+04 </wgt>
<wgt id='1251'> +7.2782221e+04 </wgt>
<wgt id='1252'> +7.3434169e+04 </wgt>
<wgt id='1253'> +7.2202344e+04 </wgt>
<wgt id='1254'> +7.2088780e+04 </wgt>
<wgt id='1255'> +7.3004110e+04 </wgt>
<wgt id='1256'> +7.2629191e+04 </wgt>
<wgt id='1257'> +7.2570609e+04 </wgt>
<wgt id='1258'> +7.2865723e+04 </wgt>
<wgt id='1259'> +7.2783599e+04 </wgt>
<wgt id='1260'> +7.2421546e+04 </wgt>
<wgt id='1261'> +7.2675755e+04 </wgt>
<wgt id='1262'> +7.2792076e+04 </wgt>
<wgt id='1263'> +7.2640943e+04 </wgt>
<wgt id='1264'> +7.3036665e+04 </wgt>
<wgt id='1265'> +7.2610859e+04 </wgt>
<wgt id='1266'> +7.2556969e+04 </wgt>
<wgt id='1267'> +7.2614704e+04 </wgt>
<wgt id='1268'> +7.2511190e+04 </wgt>
<wgt id='1269'> +7.2860557e+04 </wgt>
<wgt id='1270'> +7.2983196e+04 </wgt>
<wgt id='1271'> +7.2775968e+04 </wgt>
<wgt id='1272'> +7.2578936e+04 </wgt>
<wgt id='1273'> +7.2783575e+04 </wgt>
<wgt id='1274'> +7.2686565e+04 </wgt>
<wgt id='1275'> +7.2682902e+04 </wgt>
<wgt id='1276'> +7.2553821e+04 </wgt>
<wgt id='1277'> +7.2573224e+04 </wgt>
<wgt id='1278'> +7.2845879e+04 </wgt>
<wgt id='1279'> +7.2336553e+04 </wgt>
<wgt id='1280'> +7.2728897e+04 </wgt>
<wgt id='1281'> +7.2591380e+04 </wgt>
<wgt id='1282'> +7.2828794e+04 </wgt>
<wgt id='1283'> +7.2580156e+04 </wgt>
<wgt id='1284'> +7.2787772e+04 </wgt>
<wgt id='1285'> +7.2665944e+04 </wgt>
<wgt id='1286'> +7.2853889e+04 </wgt>
<wgt id='1287'> +7.2561241e+04 </wgt>
<wgt id='1288'> +7.2709417e+04 </wgt>
<wgt id='1289'> +7.2873468e+04 </wgt>
<wgt id='1290'> +7.2593544e+04 </wgt>
<wgt id='1291'> +7.2760314e+04 </wgt>
<wgt id='1292'> +7.2765135e+04 </wgt>
<wgt id='1293'> +7.2705242e+04 </wgt>
<wgt id='1294'> +7.2694052e+04 </wgt>
<wgt id='1295'> +7.2726112e+04 </wgt>
<wgt id='1296'> +7.2666117e+04 </wgt>
<wgt id='1297'> +7.2751335e+04 </wgt>
<wgt id='1298'> +7.2765379e+04 </wgt>
<wgt id='1299'> +7.2796230e+04 </wgt>
<wgt id='1300'> +7.2691473e+04 </wgt>
<wgt id='1301'> +7.2843638e+04 </wgt>
<wgt id='1302'> +7.2765650e+04 </wgt>
<wgt id='1303'> +7.2769761e+04 </wgt>
<wgt id='1304'> +7.2684556e+04 </wgt>
<wgt id='1305'> +7.2601552e+04 </wgt>
<wgt id='1306'> +7.2597884e+04 </wgt>
<wgt id='1307'> +7.2760704e+04 </wgt>
<wgt id='1308'> +7.2576753e+04 </wgt>
<wgt id='1309'> +7.2739610e+04 </wgt>
<wgt id='1310'> +7.2553771e+04 </wgt>
<wgt id='1311'> +7.2708118e+04 </wgt>
<wgt id='1312'> +7.2641544e+04 </wgt>
<wgt id='1313'> +7.2793839e+04 </wgt>
<wgt id='1314'> +7.2784607e+04 </wgt>
<wgt id='1315'> +7.2644767e+04 </wgt>
<wgt id='1316'> +7.2743083e+04 </wgt>
<wgt id='1317'> +7.2710906e+04 </wgt>
<wgt id='1318'> +7.2643212e+04 </wgt>
<wgt id='1319'> +7.2662769e+04 </wgt>
<wgt id='1320'> +7.2579649e+04 </wgt>
<wgt id='1321'> +7.2792753e+04 </wgt>
<wgt id='1322'> +7.2696769e+04 </wgt>
<wgt id='1323'> +7.2800826e+04 </wgt>
<wgt id='1324'> +7.1633537e+04 </wgt>
<wgt id='1325'> +7.4083912e+04 </wgt>
<wgt id='1326'> +7.1924246e+04 </wgt>
<wgt id='1327'> +6.7932771e+04 </wgt>
<wgt id='1328'> +7.2675058e+04 </wgt>
<wgt id='1329'> +7.2080528e+04 </wgt>
<wgt id='1330'> +7.4053406e+04 </wgt>
<wgt id='1331'> +7.2189028e+04 </wgt>
<wgt id='1332'> +7.5478481e+04 </wgt>
<wgt id='1333'> +7.3360159e+04 </wgt>
<wgt id='1334'> +7.0858177e+04 </wgt>
<wgt id='1335'> +6.9578298e+04 </wgt>
<wgt id='1336'> +7.2828891e+04 </wgt>
<wgt id='1337'> +7.3849974e+04 </wgt>
<wgt id='1338'> +7.2118489e+04 </wgt>
<wgt id='1339'> +7.3241234e+04 </wgt>
<wgt id='1340'> +7.1185539e+04 </wgt>
<wgt id='1341'> +7.0790898e+04 </wgt>
<wgt id='1342'> +7.4876079e+04 </wgt>
<wgt id='1343'> +7.2530908e+04 </wgt>
<wgt id='1344'> +7.1330623e+04 </wgt>
<wgt id='1345'> +7.5015468e+04 </wgt>
<wgt id='1346'> +7.2658896e+04 </wgt>
<wgt id='1347'> +7.3405711e+04 </wgt>
<wgt id='1348'> +6.8693538e+04 </wgt>
<wgt id='1349'> +7.3172221e+04 </wgt>
<wgt id='1350'> +7.3061494e+04 </wgt>
<wgt id='1351'> +7.0982969e+04 </wgt>
<wgt id='1352'> +7.5002584e+04 </wgt>
<wgt id='1353'> +7.4731110e+04 </wgt>
<wgt id='1354'> +7.1929223e+04 </wgt>
<wgt id='1355'> +7.4532378e+04 </wgt>
<wgt id='1356'> +7.4359859e+04 </wgt>
<wgt id='1357'> +7.1976050e+04 </wgt>
<wgt id='1358'> +7.2863091e+04 </wgt>
<wgt id='1359'> +7.2374504e+04 </wgt>
<wgt id='1360'> +7.4954660e+04 </wgt>
<wgt id='1361'> +7.5377402e+04 </wgt>
<wgt id='1362'> +7.2635831e+04 </wgt>
<wgt id='1363'> +7.1024937e+04 </wgt>
<wgt id='1364'> +7.2208398e+04 </wgt>
<wgt id='1365'> +7.2632717e+04 </wgt>
<wgt id='1366'> +7.3344324e+04 </wgt>
<wgt id='1367'> +7.4328340e+04 </wgt>
<wgt id='1368'> +7.2817801e+04 </wgt>
<wgt id='1369'> +7.2385224e+04 </wgt>
<wgt id='1370'> +7.0140361e+04 </wgt>
<wgt id='1371'> +7.2509310e+04 </wgt>
<wgt id='1372'> +7.5320636e+04 </wgt>
<wgt id='1373'> +7.2218333e+04 </wgt>
<wgt id='1374'> +7.3763277e+04 </wgt>
<wgt id='1375'> +7.3905503e+04 </wgt>
<wgt id='1376'> +7.1530107e+04 </wgt>
<wgt id='1377'> +7.4689606e+04 </wgt>
<wgt id='1378'> +7.2111977e+04 </wgt>
<wgt id='1379'> +7.3004535e+04 </wgt>
<wgt id='1380'> +7.1332244e+04 </wgt>
<wgt id='1381'> +7.3244545e+04 </wgt>
<wgt id='1382'> +6.9936587e+04 </wgt>
<wgt id='1383'> +7.2122761e+04 </wgt>
<wgt id='1384'> +7.3020849e+04 </wgt>
<wgt id='1385'> +6.5483839e+04 </wgt>
<wgt id='1386'> +7.4382391e+04 </wgt>
<wgt id='1387'> +7.4115977e+04 </wgt>
<wgt id='1388'> +7.4105725e+04 </wgt>
<wgt id='1389'> +7.2792793e+04 </wgt>
<wgt id='1390'> +6.7457414e+04 </wgt>
<wgt id='1391'> +7.1510095e+04 </wgt>
<wgt id='1392'> +7.1204847e+04 </wgt>
<wgt id='1393'> +7.0541104e+04 </wgt>
<wgt id='1394'> +7.2632717e+04 </wgt>
<wgt id='1395'> +7.2530626e+04 </wgt>
<wgt id='1396'> +7.3936936e+04 </wgt>
<wgt id='1397'> +7.3237398e+04 </wgt>
<wgt id='1398'> +7.4687413e+04 </wgt>
<wgt id='1399'> +7.2504920e+04 </wgt>
<wgt id='1400'> +7.3588805e+04 </wgt>
<wgt id='1401'> +7.1811577e+04 </wgt>
<wgt id='1402'> +7.3228952e+04 </wgt>
<wgt id='1403'> +7.5170038e+04 </wgt>
<wgt id='1404'> +7.4177158e+04 </wgt>
<wgt id='1405'> +6.8840597e+04 </wgt>
<wgt id='1406'> +7.2303974e+04 </wgt>
<wgt id='1407'> +7.4641259e+04 </wgt>
<wgt id='1408'> +7.4642250e+04 </wgt>
<wgt id='1409'> +7.2463318e+04 </wgt>
<wgt id='1410'> +7.3647104e+04 </wgt>
<wgt id='1411'> +7.2879374e+04 </wgt>
<wgt id='1412'> +7.3621994e+04 </wgt>
<wgt id='1413'> +7.3320171e+04 </wgt>
<wgt id='1414'> +6.9362361e+04 </wgt>
<wgt id='1415'> +6.9957940e+04 </wgt>
<wgt id='1416'> +7.2671419e+04 </wgt>
<wgt id='1417'> +7.1219813e+04 </wgt>
<wgt id='1418'> +7.6247830e+04 </wgt>
<wgt id='1419'> +7.3076665e+04 </wgt>
<wgt id='1420'> +7.0372277e+04 </wgt>
<wgt id='1421'> +7.2028870e+04 </wgt>
<wgt id='1422'> +7.2709705e+04 </wgt>
<wgt id='1423'> +7.3257589e+04 </wgt>
<wgt id='1424'> +7.2166565e+04 </wgt>
<wgt id='1425'> +7.3247673e+04 </wgt>
<wgt id='1426'> +7.2444376e+04 </wgt>
<wgt id='1427'> +7.3120661e+04 </wgt>
<wgt id='1428'> +7.4559933e+04 </wgt>
<wgt id='1429'> +7.2412553e+04 </wgt>
<wgt id='1430'> +7.3005362e+04 </wgt>
<wgt id='1431'> +7.2679465e+04 </wgt>
<wgt id='1432'> +7.3178049e+04 </wgt>
<wgt id='1433'> +7.2591078e+04 </wgt>
<wgt id='1434'> +7.2618841e+04 </wgt>
<wgt id='1435'> +7.2346798e+04 </wgt>
<wgt id='1436'> +7.2025215e+04 </wgt>
<wgt id='1437'> +7.3011618e+04 </wgt>
<wgt id='1438'> +7.2785496e+04 </wgt>
<wgt id='1439'> +7.1903324e+04 </wgt>
<wgt id='1440'> +7.2618932e+04 </wgt>
<wgt id='1441'> +7.2471080e+04 </wgt>
<wgt id='1442'> +7.2463102e+04 </wgt>
<wgt id='1443'> +7.2567463e+04 </wgt>
<wgt id='1444'> +7.2247990e+04 </wgt>
<wgt id='1445'> +7.2030230e+04 </wgt>
<wgt id='1446'> +7.2893228e+04 </wgt>
<wgt id='1447'> +7.2484274e+04 </wgt>
<wgt id='1448'> +7.2820851e+04 </wgt>
<wgt id='1449'> +7.2677568e+04 </wgt>
<wgt id='1450'> +7.2558478e+04 </wgt>
<wgt id='1451'> +7.2560974e+04 </wgt>
<wgt id='1452'> +7.2509280e+04 </wgt>
<wgt id='1453'> +7.2522999e+04 </wgt>
<wgt id='1454'> +7.2665916e+04 </wgt>
<wgt id='1455'> +7.2487112e+04 </wgt>
<wgt id='1456'> +7.2662688e+04 </wgt>
<wgt id='1457'> +7.2474434e+04 </wgt>
<wgt id='1458'> +7.2740340e+04 </wgt>
<wgt id='1459'> +7.2710863e+04 </wgt>
<wgt id='1460'> +7.2485146e+04 </wgt>
<wgt id='1461'> +7.2695188e+04 </wgt>
<wgt id='1462'> +7.2563399e+04 </wgt>
<wgt id='1463'> +7.2639758e+04 </wgt>
<wgt id='1464'> +7.2585698e+04 </wgt>
<wgt id='1465'> +7.2702946e+04 </wgt>
<wgt id='1466'> +7.2615619e+04 </wgt>
<wgt id='1467'> +7.2603503e+04 </wgt>
<wgt id='1468'> +7.2598528e+04 </wgt>
<wgt id='1469'> +7.2738192e+04 </wgt>
<wgt id='1470'> +7.2708942e+04 </wgt>
<wgt id='1471'> +7.2687819e+04 </wgt>
<wgt id='1472'> +7.2582344e+04 </wgt>
<wgt id='1473'> +7.2695485e+04 </wgt>
<wgt id='1474'> +7.2724709e+04 </wgt>
<wgt id='1475'> +7.2719572e+04 </wgt>
<wgt id='1476'> +7.2727608e+04 </wgt>
<wgt id='1477'> +7.2709194e+04 </wgt>
<wgt id='1478'> +7.2774114e+04 </wgt>
<wgt id='1479'> +7.2664507e+04 </wgt>
<wgt id='1480'> +7.2601973e+04 </wgt>
<wgt id='1481'> +7.2681395e+04 </wgt>
<wgt id='1482'> +7.2412553e+04 </wgt>
<wgt id='1483'> +7.3005362e+04 </wgt>
<wgt id='1484'> +7.4811616e+04 </wgt>
<wgt id='1485'> +7.5022606e+04 </wgt>
<wgt id='1486'> +7.6212502e+04 </wgt>
<wgt id='1487'> +7.3348135e+04 </wgt>
<wgt id='1488'> +7.5004467e+04 </wgt>
<wgt id='1489'> +7.4619133e+04 </wgt>
<wgt id='1490'> +7.0828568e+04 </wgt>
<wgt id='1491'> +7.4425578e+04 </wgt>
<wgt id='1492'> +7.2540747e+04 </wgt>
<wgt id='1493'> +7.5136145e+04 </wgt>
<wgt id='1494'> +7.5515627e+04 </wgt>
<wgt id='1495'> +7.1150558e+04 </wgt>
<wgt id='1496'> +7.1812888e+04 </wgt>
<wgt id='1497'> +7.2400810e+04 </wgt>
<wgt id='1498'> +7.7033641e+04 </wgt>
<wgt id='1499'> +7.6598292e+04 </wgt>
<wgt id='1500'> +7.3126634e+04 </wgt>
<wgt id='1501'> +7.3585454e+04 </wgt>
<wgt id='1502'> +7.5498781e+04 </wgt>
<wgt id='1503'> +7.4346935e+04 </wgt>
<wgt id='1504'> +7.5214236e+04 </wgt>
<wgt id='1505'> +7.5910330e+04 </wgt>
<wgt id='1506'> +7.4413939e+04 </wgt>
<wgt id='1507'> +7.3564689e+04 </wgt>
<wgt id='1508'> +7.2478945e+04 </wgt>
<wgt id='1509'> +7.7226025e+04 </wgt>
<wgt id='1510'> +7.8475402e+04 </wgt>
<wgt id='1511'> +7.6225044e+04 </wgt>
<wgt id='1512'> +7.4282561e+04 </wgt>
<wgt id='1513'> +7.4051349e+04 </wgt>
<wgt id='1514'> +7.4001566e+04 </wgt>
<wgt id='1515'> +7.4994175e+04 </wgt>
<wgt id='1516'> +7.4967351e+04 </wgt>
<wgt id='1517'> +7.6174156e+04 </wgt>
<wgt id='1518'> +7.4912002e+04 </wgt>
<wgt id='1519'> +7.4485717e+04 </wgt>
<wgt id='1520'> +7.6488236e+04 </wgt>
<wgt id='1521'> +7.3672045e+04 </wgt>
<wgt id='1522'> +7.6600987e+04 </wgt>
<wgt id='1523'> +7.5268295e+04 </wgt>
<wgt id='1524'> +7.5996366e+04 </wgt>
<wgt id='1525'> +7.4261651e+04 </wgt>
<wgt id='1526'> +7.4019365e+04 </wgt>
<wgt id='1527'> +7.5169175e+04 </wgt>
<wgt id='1528'> +7.5182869e+04 </wgt>
<wgt id='1529'> +7.5503064e+04 </wgt>
<wgt id='1530'> +7.4526437e+04 </wgt>
<wgt id='1531'> +7.5508510e+04 </wgt>
<wgt id='1532'> +7.4148862e+04 </wgt>
<wgt id='1533'> +7.7312926e+04 </wgt>
<wgt id='1534'> +7.5423295e+04 </wgt>
<wgt id='1535'> +7.5614214e+04 </wgt>
<wgt id='1536'> +7.3592805e+04 </wgt>
<wgt id='1537'> +7.6103636e+04 </wgt>
<wgt id='1538'> +7.4513471e+04 </wgt>
<wgt id='1539'> +7.5322255e+04 </wgt>
<wgt id='1540'> +7.6019524e+04 </wgt>
<wgt id='1541'> +7.5002592e+04 </wgt>
<wgt id='1542'> +7.5364471e+04 </wgt>
<wgt id='1543'> +7.6008036e+04 </wgt>
<wgt id='1544'> +7.4723867e+04 </wgt>
<wgt id='1545'> +7.5578263e+04 </wgt>
<wgt id='1546'> +7.3549386e+04 </wgt>
<wgt id='1547'> +7.5129730e+04 </wgt>
<wgt id='1548'> +7.5408783e+04 </wgt>
<wgt id='1549'> +7.6814641e+04 </wgt>
<wgt id='1550'> +7.7773472e+04 </wgt>
<wgt id='1551'> +7.5973828e+04 </wgt>
<wgt id='1552'> +7.5096955e+04 </wgt>
<wgt id='1553'> +7.6731254e+04 </wgt>
<wgt id='1554'> +7.4945613e+04 </wgt>
<wgt id='1555'> +7.3000191e+04 </wgt>
<wgt id='1556'> +7.1618567e+04 </wgt>
<wgt id='1557'> +7.4723287e+04 </wgt>
<wgt id='1558'> +7.4676844e+04 </wgt>
<wgt id='1559'> +7.6033639e+04 </wgt>
<wgt id='1560'> +7.5900513e+04 </wgt>
<wgt id='1561'> +7.6819806e+04 </wgt>
<wgt id='1562'> +7.4890011e+04 </wgt>
<wgt id='1563'> +7.5212870e+04 </wgt>
<wgt id='1564'> +7.4600568e+04 </wgt>
<wgt id='1565'> +7.5030135e+04 </wgt>
<wgt id='1566'> +7.3350156e+04 </wgt>
<wgt id='1567'> +7.5079821e+04 </wgt>
<wgt id='1568'> +7.5186296e+04 </wgt>
<wgt id='1569'> +7.4822628e+04 </wgt>
<wgt id='1570'> +7.5787949e+04 </wgt>
<wgt id='1571'> +7.3815147e+04 </wgt>
<wgt id='1572'> +7.3291737e+04 </wgt>
<wgt id='1573'> +7.5048272e+04 </wgt>
<wgt id='1574'> +7.2456974e+04 </wgt>
<wgt id='1575'> +7.2618039e+04 </wgt>
<wgt id='1576'> +7.4847059e+04 </wgt>
<wgt id='1577'> +7.1136033e+04 </wgt>
<wgt id='1578'> +7.6654272e+04 </wgt>
<wgt id='1579'> +7.2536045e+04 </wgt>
<wgt id='1580'> +7.5376191e+04 </wgt>
<wgt id='1581'> +7.7246165e+04 </wgt>
<wgt id='1582'> +7.4656793e+04 </wgt>
<wgt id='1583'> +7.5041317e+04 </wgt>
<wgt id='1584'> +7.2075934e+04 </wgt>
<wgt id='1585'> +7.2110702e+04 </wgt>
<wgt id='1586'> +6.3380413e+04 </wgt>
<wgt id='1587'> +7.2273399e+04 </wgt>
<wgt id='1588'> +7.2412553e+04 </wgt>
<wgt id='1589'> +7.2226821e+04 </wgt>
<wgt id='1590'> +7.2512955e+04 </wgt>
<wgt id='1591'> +7.3005362e+04 </wgt>
<wgt id='1592'> +7.2800216e+04 </wgt>
<wgt id='1593'> +7.6440275e+04 </wgt>
<wgt id='1594'> +7.5680946e+04 </wgt>
<wgt id='1595'> +7.5714906e+04 </wgt>
<wgt id='1596'> +7.5935528e+04 </wgt>
<wgt id='1597'> +7.7296397e+04 </wgt>
<wgt id='1598'> +7.4847693e+04 </wgt>
<wgt id='1599'> +7.7816489e+04 </wgt>
<wgt id='1600'> +7.4806791e+04 </wgt>
<wgt id='1601'> +7.8126869e+04 </wgt>
<wgt id='1602'> +7.5248447e+04 </wgt>
<wgt id='1603'> +7.7696079e+04 </wgt>
<wgt id='1604'> +7.8010278e+04 </wgt>
<wgt id='1605'> +7.6208231e+04 </wgt>
<wgt id='1606'> +7.5075484e+04 </wgt>
<wgt id='1607'> +7.7221345e+04 </wgt>
<wgt id='1608'> +7.5326675e+04 </wgt>
<wgt id='1609'> +7.6641160e+04 </wgt>
<wgt id='1610'> +7.7171331e+04 </wgt>
<wgt id='1611'> +7.5527458e+04 </wgt>
<wgt id='1612'> +7.7886945e+04 </wgt>
<wgt id='1613'> +7.3942944e+04 </wgt>
<wgt id='1614'> +7.6579096e+04 </wgt>
<wgt id='1615'> +7.6330088e+04 </wgt>
<wgt id='1616'> +7.6235388e+04 </wgt>
<wgt id='1617'> +7.5894401e+04 </wgt>
<wgt id='1618'> +7.6201434e+04 </wgt>
<wgt id='1619'> +7.7232806e+04 </wgt>
<wgt id='1620'> +7.6309678e+04 </wgt>
<wgt id='1621'> +7.6414372e+04 </wgt>
<wgt id='1622'> +7.5982194e+04 </wgt>
<wgt id='1623'> +7.5667835e+04 </wgt>
<wgt id='1624'> +7.7211613e+04 </wgt>
<wgt id='1625'> +7.4884010e+04 </wgt>
<wgt id='1626'> +7.5313174e+04 </wgt>
<wgt id='1627'> +7.7172966e+04 </wgt>
<wgt id='1628'> +7.6362613e+04 </wgt>
<wgt id='1629'> +7.6651037e+04 </wgt>
<wgt id='1630'> +7.5865943e+04 </wgt>
<wgt id='1631'> +7.6343168e+04 </wgt>
<wgt id='1632'> +7.6564454e+04 </wgt>
<wgt id='1633'> +7.6027313e+04 </wgt>
<wgt id='1634'> +7.7153639e+04 </wgt>
<wgt id='1635'> +7.5619348e+04 </wgt>
<wgt id='1636'> +7.6254340e+04 </wgt>
<wgt id='1637'> +7.6801663e+04 </wgt>
<wgt id='1638'> +7.6566618e+04 </wgt>
<wgt id='1639'> +7.6406879e+04 </wgt>
<wgt id='1640'> +7.7271826e+04 </wgt>
<wgt id='1641'> +7.5473765e+04 </wgt>
<wgt id='1642'> +7.5777856e+04 </wgt>
<wgt id='1643'> +7.6826309e+04 </wgt>
<wgt id='1644'> +7.7335042e+04 </wgt>
<wgt id='1645'> +7.5138211e+04 </wgt>
<wgt id='1646'> +7.6629478e+04 </wgt>
<wgt id='1647'> +7.6852964e+04 </wgt>
<wgt id='1648'> +7.6115698e+04 </wgt>
<wgt id='1649'> +7.6684582e+04 </wgt>
<wgt id='1650'> +7.7346980e+04 </wgt>
<wgt id='1651'> +7.5248789e+04 </wgt>
<wgt id='1652'> +7.5869077e+04 </wgt>
<wgt id='1653'> +7.6153141e+04 </wgt>
<wgt id='1654'> +7.6734994e+04 </wgt>
<wgt id='1655'> +7.7047874e+04 </wgt>
<wgt id='1656'> +7.7860485e+04 </wgt>
<wgt id='1657'> +7.7288188e+04 </wgt>
<wgt id='1658'> +7.7118292e+04 </wgt>
<wgt id='1659'> +7.8827261e+04 </wgt>
<wgt id='1660'> +7.8522080e+04 </wgt>
<wgt id='1661'> +7.8135675e+04 </wgt>
<wgt id='1662'> +7.7118140e+04 </wgt>
<wgt id='1663'> +7.6957655e+04 </wgt>
<wgt id='1664'> +7.7227487e+04 </wgt>
<wgt id='1665'> +7.7070243e+04 </wgt>
<wgt id='1666'> +7.8636437e+04 </wgt>
<wgt id='1667'> +7.7431315e+04 </wgt>
<wgt id='1668'> +7.8437211e+04 </wgt>
<wgt id='1669'> +7.8727290e+04 </wgt>
<wgt id='1670'> +7.7024083e+04 </wgt>
<wgt id='1671'> +7.8835193e+04 </wgt>
<wgt id='1672'> +7.7450620e+04 </wgt>
<wgt id='1673'> +7.8805095e+04 </wgt>
<wgt id='1674'> +7.8026072e+04 </wgt>
<wgt id='1675'> +7.9013322e+04 </wgt>
<wgt id='1676'> +7.6681575e+04 </wgt>
<wgt id='1677'> +7.8135954e+04 </wgt>
<wgt id='1678'> +7.8499830e+04 </wgt>
<wgt id='1679'> +7.6937108e+04 </wgt>
<wgt id='1680'> +7.9451224e+04 </wgt>
<wgt id='1681'> +7.8278905e+04 </wgt>
<wgt id='1682'> +7.6887798e+04 </wgt>
<wgt id='1683'> +7.7633666e+04 </wgt>
<wgt id='1684'> +7.7967630e+04 </wgt>
<wgt id='1685'> +7.8567677e+04 </wgt>
<wgt id='1686'> +7.6620490e+04 </wgt>
<wgt id='1687'> +7.8264179e+04 </wgt>
<wgt id='1688'> +7.6985415e+04 </wgt>
<wgt id='1689'> +7.7243055e+04 </wgt>
<wgt id='1690'> +7.9643032e+04 </wgt>
<wgt id='1691'> +7.7971232e+04 </wgt>
<wgt id='1692'> +7.7588773e+04 </wgt>
<wgt id='1693'> +7.8933041e+04 </wgt>
<wgt id='1694'> +7.7538726e+04 </wgt>
<wgt id='1695'> +7.7349743e+04 </wgt>
<wgt id='1696'> +7.7909409e+04 </wgt>
<wgt id='1697'> +7.8467039e+04 </wgt>
<wgt id='1698'> +7.7128635e+04 </wgt>
<wgt id='1699'> +7.6406758e+04 </wgt>
<wgt id='1700'> +7.9497097e+04 </wgt>
<wgt id='1701'> +7.6210794e+04 </wgt>
<wgt id='1702'> +7.9779879e+04 </wgt>
<wgt id='1703'> +7.7973618e+04 </wgt>
<wgt id='1704'> +7.8545041e+04 </wgt>
<wgt id='1705'> +7.7703827e+04 </wgt>
<wgt id='1706'> +7.8288646e+04 </wgt>
<wgt id='1707'> +7.6408767e+04 </wgt>
<wgt id='1708'> +7.9080649e+04 </wgt>
<wgt id='1709'> +7.7904973e+04 </wgt>
<wgt id='1710'> +7.7938914e+04 </wgt>
<wgt id='1711'> +7.7565776e+04 </wgt>
<wgt id='1712'> +7.7496348e+04 </wgt>
<wgt id='1713'> +7.8376469e+04 </wgt>
<wgt id='1714'> +7.7079170e+04 </wgt>
<wgt id='1715'> +7.5042282e+04 </wgt>
<wgt id='1716'> +7.7675184e+04 </wgt>
<wgt id='1717'> +7.1309081e+04 </wgt>
<wgt id='1718'> +7.1208532e+04 </wgt>
<wgt id='1719'> +7.1435340e+04 </wgt>
<wgt id='1720'> +7.1312755e+04 </wgt>
<wgt id='1721'> +7.1305715e+04 </wgt>
<wgt id='1722'> +7.1289471e+04 </wgt>
<wgt id='1723'> +7.1340984e+04 </wgt>
<wgt id='1724'> +7.1623185e+04 </wgt>
<wgt id='1725'> +7.1054075e+04 </wgt>
<wgt id='1726'> +7.1201038e+04 </wgt>
<wgt id='1727'> +7.1420075e+04 </wgt>
<wgt id='1728'> +7.0163408e+04 </wgt>
<wgt id='1729'> +7.2426972e+04 </wgt>
<wgt id='1730'> +7.1549032e+04 </wgt>
<wgt id='1731'> +7.1137969e+04 </wgt>
<wgt id='1732'> +7.1855595e+04 </wgt>
<wgt id='1733'> +7.1855595e+04 </wgt>
<wgt id='1734'> +7.0880464e+04 </wgt>
<wgt id='1735'> +7.1596534e+04 </wgt>
<wgt id='1736'> +7.0918394e+04 </wgt>
<wgt id='1737'> +7.1851143e+04 </wgt>
<wgt id='1738'> +7.1521553e+04 </wgt>
<wgt id='1739'> +7.0878086e+04 </wgt>
<wgt id='1740'> +7.1245360e+04 </wgt>
<wgt id='1741'> +7.1454203e+04 </wgt>
<wgt id='1742'> +7.0904009e+04 </wgt>
<wgt id='1743'> +7.1766918e+04 </wgt>
<wgt id='1744'> +7.1545535e+04 </wgt>
<wgt id='1745'> +7.0664007e+04 </wgt>
<wgt id='1746'> +7.0916686e+04 </wgt>
<wgt id='1747'> +7.1505876e+04 </wgt>
<wgt id='1748'> +7.1604252e+04 </wgt>
<wgt id='1749'> +7.0352030e+04 </wgt>
<wgt id='1750'> +7.1371127e+04 </wgt>
<wgt id='1751'> +7.1244807e+04 </wgt>
<wgt id='1752'> +7.1049589e+04 </wgt>
<wgt id='1753'> +7.1666777e+04 </wgt>
<wgt id='1754'> +7.1766707e+04 </wgt>
<wgt id='1755'> +7.1056986e+04 </wgt>
<wgt id='1756'> +7.0736281e+04 </wgt>
<wgt id='1757'> +7.2719264e+04 </wgt>
<wgt id='1758'> +7.1430902e+04 </wgt>
<wgt id='1759'> +7.0975331e+04 </wgt>
<wgt id='1760'> +7.1573730e+04 </wgt>
<wgt id='1761'> +7.1075723e+04 </wgt>
<wgt id='1762'> +7.1188304e+04 </wgt>
<wgt id='1763'> +7.1484880e+04 </wgt>
<wgt id='1764'> +7.1252961e+04 </wgt>
<wgt id='1765'> +7.1543648e+04 </wgt>
<wgt id='1766'> +7.1248936e+04 </wgt>
<wgt id='1767'> +7.1401782e+04 </wgt>
<wgt id='1768'> +7.1280832e+04 </wgt>
<wgt id='1769'> +7.1354134e+04 </wgt>
<wgt id='1770'> +7.1049872e+04 </wgt>
<wgt id='1771'> +7.1613390e+04 </wgt>
<wgt id='1772'> +7.1378527e+04 </wgt>
<wgt id='1773'> +7.1439441e+04 </wgt>
<wgt id='1774'> +7.0331178e+04 </wgt>
<wgt id='1775'> +7.1929945e+04 </wgt>
<wgt id='1776'> +7.0697886e+04 </wgt>
<wgt id='1777'> +7.1603172e+04 </wgt>
<wgt id='1778'> +7.1074602e+04 </wgt>
<wgt id='1779'> +7.1264501e+04 </wgt>
<wgt id='1780'> +7.1915033e+04 </wgt>
<wgt id='1781'> +7.1425640e+04 </wgt>
<wgt id='1782'> +7.1309081e+04 </wgt>
<wgt id='1783'> +7.1463221e+04 </wgt>
<wgt id='1784'> +7.3126985e+04 </wgt>
<wgt id='1785'> +7.2913340e+04 </wgt>
<wgt id='1786'> +7.0971770e+04 </wgt>
<wgt id='1787'> +7.3136497e+04 </wgt>
<wgt id='1788'> +7.3411545e+04 </wgt>
<wgt id='1789'> +7.3206204e+04 </wgt>
<wgt id='1790'> +7.2755948e+04 </wgt>
<wgt id='1791'> +7.3018517e+04 </wgt>
<wgt id='1792'> +7.2480906e+04 </wgt>
<wgt id='1793'> +7.3227094e+04 </wgt>
<wgt id='1794'> +7.3797522e+04 </wgt>
<wgt id='1795'> +7.2627961e+04 </wgt>
<wgt id='1796'> +7.3127810e+04 </wgt>
<wgt id='1797'> +7.3220150e+04 </wgt>
<wgt id='1798'> +7.3080936e+04 </wgt>
<wgt id='1799'> +7.3796921e+04 </wgt>
<wgt id='1800'> +7.3887277e+04 </wgt>
<wgt id='1801'> +7.3792389e+04 </wgt>
<wgt id='1802'> +7.3531515e+04 </wgt>
<wgt id='1803'> +7.3530999e+04 </wgt>
<wgt id='1804'> +7.2474313e+04 </wgt>
<wgt id='1805'> +7.2742907e+04 </wgt>
<wgt id='1806'> +7.3007101e+04 </wgt>
<wgt id='1807'> +7.3202749e+04 </wgt>
<wgt id='1808'> +7.3176094e+04 </wgt>
<wgt id='1809'> +7.2198773e+04 </wgt>
<wgt id='1810'> +7.2890587e+04 </wgt>
<wgt id='1811'> +7.3039088e+04 </wgt>
<wgt id='1812'> +7.2964031e+04 </wgt>
<wgt id='1813'> +7.2128096e+04 </wgt>
<wgt id='1814'> +7.2988201e+04 </wgt>
<wgt id='1815'> +7.3015164e+04 </wgt>
<wgt id='1816'> +7.2997878e+04 </wgt>
<wgt id='1817'> +7.2892473e+04 </wgt>
<wgt id='1818'> +7.3129654e+04 </wgt>
<wgt id='1819'> +7.3263583e+04 </wgt>
<wgt id='1820'> +7.2893145e+04 </wgt>
<wgt id='1821'> +7.3051081e+04 </wgt>
<wgt id='1822'> +7.3222853e+04 </wgt>
<wgt id='1823'> +7.2917711e+04 </wgt>
<wgt id='1824'> +7.4014955e+04 </wgt>
<wgt id='1825'> +7.2693151e+04 </wgt>
<wgt id='1826'> +7.4043569e+04 </wgt>
<wgt id='1827'> +7.4498248e+04 </wgt>
<wgt id='1828'> +7.4644134e+04 </wgt>
<wgt id='1829'> +7.4328382e+04 </wgt>
<wgt id='1830'> +7.4523469e+04 </wgt>
<wgt id='1831'> +7.4447693e+04 </wgt>
<wgt id='1832'> +7.4556438e+04 </wgt>
<wgt id='1833'> +7.4415397e+04 </wgt>
<wgt id='1834'> +7.4075538e+04 </wgt>
<wgt id='1835'> +7.4879289e+04 </wgt>
<wgt id='1836'> +7.4762642e+04 </wgt>
<wgt id='1837'> +7.4195592e+04 </wgt>
<wgt id='1838'> +7.4578159e+04 </wgt>
<wgt id='1839'> +7.4359657e+04 </wgt>
<wgt id='1840'> +7.4368064e+04 </wgt>
<wgt id='1841'> +7.4611005e+04 </wgt>
<wgt id='1842'> +7.4583625e+04 </wgt>
<wgt id='1843'> +7.4659447e+04 </wgt>
<wgt id='1844'> +7.4062865e+04 </wgt>
<wgt id='1845'> +7.4883629e+04 </wgt>
<wgt id='1846'> +7.3584439e+04 </wgt>
<wgt id='1847'> +7.5298617e+04 </wgt>
<wgt id='1848'> +7.4529281e+04 </wgt>
<wgt id='1849'> +7.4335296e+04 </wgt>
<wgt id='1850'> +7.5216167e+04 </wgt>
<wgt id='1851'> +7.3776792e+04 </wgt>
<wgt id='1852'> +7.5604507e+04 </wgt>
<wgt id='1853'> +7.3332588e+04 </wgt>
<wgt id='1854'> +7.5339184e+04 </wgt>
<wgt id='1855'> +7.3723497e+04 </wgt>
<wgt id='1856'> +7.1840682e+04 </wgt>
<wgt id='1857'> +7.1825754e+04 </wgt>
<wgt id='1858'> +7.1743011e+04 </wgt>
<wgt id='1859'> +7.1808671e+04 </wgt>
<wgt id='1860'> +7.1842373e+04 </wgt>
<wgt id='1861'> +7.1893337e+04 </wgt>
<wgt id='1862'> +7.1440468e+04 </wgt>
<wgt id='1863'> +7.1912142e+04 </wgt>
<wgt id='1864'> +7.1716582e+04 </wgt>
<wgt id='1865'> +7.1533199e+04 </wgt>
<wgt id='1866'> +7.1788990e+04 </wgt>
<wgt id='1867'> +7.1797723e+04 </wgt>
<wgt id='1868'> +7.1912614e+04 </wgt>
<wgt id='1869'> +7.1971487e+04 </wgt>
<wgt id='1870'> +7.1590846e+04 </wgt>
<wgt id='1871'> +7.1678245e+04 </wgt>
<wgt id='1872'> +7.1595116e+04 </wgt>
<wgt id='1873'> +7.1759025e+04 </wgt>
<wgt id='1874'> +7.1660281e+04 </wgt>
<wgt id='1875'> +7.1921786e+04 </wgt>
<wgt id='1876'> +7.1746880e+04 </wgt>
<wgt id='1877'> +7.1409052e+04 </wgt>
<wgt id='1878'> +7.1761038e+04 </wgt>
<wgt id='1879'> +7.2500947e+04 </wgt>
<wgt id='1880'> +7.2243747e+04 </wgt>
<wgt id='1881'> +7.1743923e+04 </wgt>
<wgt id='1882'> +7.1746463e+04 </wgt>
<wgt id='1883'> +7.2129111e+04 </wgt>
<wgt id='1884'> +7.0912560e+04 </wgt>
<wgt id='1885'> +7.1149038e+04 </wgt>
<wgt id='1886'> +7.4289118e+04 </wgt>
<wgt id='1887'> +7.8966640e+04 </wgt>
<wgt id='1888'> +6.3741858e+04 </wgt>
<wgt id='1889'> +7.7167423e+04 </wgt>
</rwgt>
</event>
<event npLO=" -1 " npNLO=" 0 ">
 5      1 +7.4519530e+04 2.02791530e+01 7.55820760e-03 1.19976610e-01
       -2 -1    0    0    0  501 +0.0000000000e+00 +0.0000000000e+00 +2.7090733850e+02 2.7090733850e+02 0.0000000000e+00 0.0000e+00 1.0000e+00
        1 -1    0    0  501    0 +0.0000000000e+00 +0.0000000000e+00 -6.1678772660e+00 6.1678772660e+00 0.0000000000e+00 0.0000e+00 -1.0000e+00
      -24  2    1    2    0    0 +0.0000000000e+00 +0.0000000000e+00 +2.6473946124e+02 2.7707521577e+02 8.1753855306e+01 0.0000e+00 0.0000e+00
       15  1    3    3    0    0 +8.1556736106e+00 -6.7266816315e+00 -1.3242085272e+00 1.0801597800e+01 1.7770000000e+00 0.0000e+00 -1.0000e+00
      -16  1    3    3    0    0 -8.1556736106e+00 +6.7266816315e+00 +2.6606366977e+02 2.6627361797e+02 0.0000000000e+00 0.0000e+00 1.0000e+00
#aMCatNLO 1  0  0  1  2 0.10120067E+02 0.00000000E+00 -9  5  0 0.00000000E+00 0.00000000E+00 0.00000000E+00 0.00000000E+00 0.00000000E+00
<rwgt>
<wgt id='1001'> +7.4519530e+04 </wgt>
<wgt id='1002'> +7.1342119e+04 </wgt>
<wgt id='1003'> +7.8476169e+04 </wgt>
<wgt id='1004'> +8.1674765e+04 </wgt>
<wgt id='1005'> +7.8235227e+04 </wgt>
<wgt id='1006'> +8.5957814e+04 </wgt>
<wgt id='1007'> +6.6433950e+04 </wgt>
<wgt id='1008'> +6.3564284e+04 </wgt>
<wgt id='1009'> +7.0007373e+04 </wgt>
<wgt id='1010'> +7.4519530e+04 </wgt>
<wgt id='1011'> +7.4379816e+04 </wgt>
<wgt id='1012'> +7.4578789e+04 </wgt>
<wgt id='1013'> +7.4352785e+04 </wgt>
<wgt id='1014'> +7.5010942e+04 </wgt>
<wgt id='1015'> +7.3632034e+04 </wgt>
<wgt id='1016'> +7.4743997e+04 </wgt>
<wgt id='1017'> +7.4219043e+04 </wgt>
<wgt id='1018'> +7.4020184e+04 </wgt>
<wgt id='1019'> +7.4668802e+04 </wgt>
<wgt id='1020'> +7.4174690e+04 </wgt>
<wgt id='1021'> +7.4962302e+04 </wgt>
<wgt id='1022'> +7.4678415e+04 </wgt>
<wgt id='1023'> +7.5331414e+04 </wgt>
<wgt id='1024'> +7.4254073e+04 </wgt>
<wgt id='1025'> +7.5693871e+04 </wgt>
<wgt id='1026'> +7.4140133e+04 </wgt>
<wgt id='1027'> +7.4494889e+04 </wgt>
<wgt id='1028'> +7.3892801e+04 </wgt>
<wgt id='1029'> +7.4888179e+04 </wgt>
<wgt id='1030'> +7.5003891e+04 </wgt>
<wgt id='1031'> +7.4146928e+04 </wgt>
<wgt id='1032'> +7.4611354e+04 </wgt>
<wgt id='1033'> +7.4252378e+04 </wgt>
<wgt id='1034'> +7.4027793e+04 </wgt>
<wgt id='1035'> +7.4638171e+04 </wgt>
<wgt id='1036'> +7.4465937e+04 </wgt>
<wgt id='1037'> +7.5171014e+04 </wgt>
<wgt id='1038'> +7.4522757e+04 </wgt>
<wgt id='1039'> +7.5020897e+04 </wgt>
<wgt id='1040'> +7.4541836e+04 </wgt>
<wgt id='1041'> +7.4921927e+04 </wgt>
<wgt id='1042'> +7.4487651e+04 </wgt>
<wgt id='1043'> +7.4401342e+04 </wgt>
<wgt id='1044'> +7.4548219e+04 </wgt>
<wgt id='1045'> +7.4254468e+04 </wgt>
<wgt id='1046'> +7.4468241e+04 </wgt>
<wgt id='1047'> +7.4612344e+04 </wgt>
<wgt id='1048'> +7.4750651e+04 </wgt>
<wgt id='1049'> +7.4462016e+04 </wgt>
<wgt id='1050'> +7.4260951e+04 </wgt>
<wgt id='1051'> +7.4129224e+04 </wgt>
<wgt id='1052'> +7.4422219e+04 </wgt>
<wgt id='1053'> +7.4658019e+04 </wgt>
<wgt id='1054'> +7.4481947e+04 </wgt>
<wgt id='1055'> +7.4671994e+04 </wgt>
<wgt id='1056'> +7.4752654e+04 </wgt>
<wgt id='1057'> +7.4457606e+04 </wgt>
<wgt id='1058'> +7.4969375e+04 </wgt>
<wgt id='1059'> +7.4006772e+04 </wgt>
<wgt id='1060'> +7.4677284e+04 </wgt>
<wgt id='1061'> +7.4654645e+04 </wgt>
<wgt id='1062'> +7.4382670e+04 </wgt>
<wgt id='1063'> +7.4421491e+04 </wgt>
<wgt id='1064'> +7.4441956e+04 </wgt>
<wgt id='1065'> +7.4696102e+04 </wgt>
<wgt id='1066'> +7.4667221e+04 </wgt>
<wgt id='1067'> +7.4649299e+04 </wgt>
<wgt id='1068'> +7.4545809e+04 </wgt>
<wgt id='1069'> +7.4540136e+04 </wgt>
<wgt id='1070'> +7.4712006e+04 </wgt>
<wgt id='1071'> +7.4605953e+04 </wgt>
<wgt id='1072'> +7.4468728e+04 </wgt>
<wgt id='1073'> +7.4276348e+04 </wgt>
<wgt id='1074'> +7.4483846e+04 </wgt>
<wgt id='1075'> +7.4584432e+04 </wgt>
<wgt id='1076'> +7.4731801e+04 </wgt>
<wgt id='1077'> +7.4724186e+04 </wgt>
<wgt id='1078'> +7.4663740e+04 </wgt>
<wgt id='1079'> +7.4336612e+04 </wgt>
<wgt id='1080'> +7.4630636e+04 </wgt>
<wgt id='1081'> +7.4394989e+04 </wgt>
<wgt id='1082'> +7.4423177e+04 </wgt>
<wgt id='1083'> +7.4574147e+04 </wgt>
<wgt id='1084'> +7.4504412e+04 </wgt>
<wgt id='1085'> +7.4550073e+04 </wgt>
<wgt id='1086'> +7.4531484e+04 </wgt>
<wgt id='1087'> +7.4608873e+04 </wgt>
<wgt id='1088'> +7.4593629e+04 </wgt>
<wgt id='1089'> +7.4392774e+04 </wgt>
<wgt id='1090'> +7.4497357e+04 </wgt>
<wgt id='1091'> +7.4521696e+04 </wgt>
<wgt id='1092'> +7.4580579e+04 </wgt>
<wgt id='1093'> +7.4537463e+04 </wgt>
<wgt id='1094'> +7.4650691e+04 </wgt>
<wgt id='1095'> +7.4505988e+04 </wgt>
<wgt id='1096'> +7.4440692e+04 </wgt>
<wgt id='1097'> +7.4588354e+04 </wgt>
<wgt id='1098'> +7.4437681e+04 </wgt>
<wgt id='1099'> +7.4560870e+04 </wgt>
<wgt id='1100'> +7.4403154e+04 </wgt>
<wgt id='1101'> +7.4499177e+04 </wgt>
<wgt id='1102'> +7.4454827e+04 </wgt>
<wgt id='1103'> +7.4623528e+04 </wgt>
<wgt id='1104'> +7.4602027e+04 </wgt>
<wgt id='1105'> +7.4586206e+04 </wgt>
<wgt id='1106'> +7.4608374e+04 </wgt>
<wgt id='1107'> +7.4429243e+04 </wgt>
<wgt id='1108'> +7.4527767e+04 </wgt>
<wgt id='1109'> +7.4568400e+04 </wgt>
<wgt id='1110'> +7.4519530e+04 </wgt>
<wgt id='1111'> +7.4372416e+04 </wgt>
<wgt id='1112'> +7.5165042e+04 </wgt>
<wgt id='1113'> +7.4519530e+04 </wgt>
<wgt id='1114'> +8.2707308e+04 </wgt>
<wgt id='1115'> +7.4602819e+04 </wgt>
<wgt id='1116'> +7.5328971e+04 </wgt>
<wgt id='1117'> +7.6905261e+04 </wgt>
<wgt id='1118'> +7.2896944e+04 </wgt>
<wgt id='1119'> +7.5850723e+04 </wgt>
<wgt id='1120'> +7.3136302e+04 </wgt>
<wgt id='1121'> +7.1163640e+04 </wgt>
<wgt id='1122'> +7.3591601e+04 </wgt>
<wgt id='1123'> +7.4525162e+04 </wgt>
<wgt id='1124'> +7.5328325e+04 </wgt>
<wgt id='1125'> +7.2954725e+04 </wgt>
<wgt id='1126'> +7.3129702e+04 </wgt>
<wgt id='1127'> +7.4285195e+04 </wgt>
<wgt id='1128'> +7.3427530e+04 </wgt>
<wgt id='1129'> +7.2407550e+04 </wgt>
<wgt id='1130'> +7.8738956e+04 </wgt>
<wgt id='1131'> +7.4419097e+04 </wgt>
<wgt id='1132'> +7.4165144e+04 </wgt>
<wgt id='1133'> +6.9778798e+04 </wgt>
<wgt id='1134'> +7.4491387e+04 </wgt>
<wgt id='1135'> +7.8663286e+04 </wgt>
<wgt id='1136'> +7.5237322e+04 </wgt>
<wgt id='1137'> +7.3934687e+04 </wgt>
<wgt id='1138'> +7.2484996e+04 </wgt>
<wgt id='1139'> +7.2499855e+04 </wgt>
<wgt id='1140'> +8.4908221e+04 </wgt>
<wgt id='1141'> +7.5419035e+04 </wgt>
<wgt id='1142'> +7.4055882e+04 </wgt>
<wgt id='1143'> +7.6684089e+04 </wgt>
<wgt id='1144'> +7.7062362e+04 </wgt>
<wgt id='1145'> +7.4507647e+04 </wgt>
<wgt id='1146'> +7.5810766e+04 </wgt>
<wgt id='1147'> +7.4735360e+04 </wgt>
<wgt id='1148'> +7.5687315e+04 </wgt>
<wgt id='1149'> +7.6083029e+04 </wgt>
<wgt id='1150'> +7.4766559e+04 </wgt>
<wgt id='1151'> +7.2952766e+04 </wgt>
<wgt id='1152'> +7.4027810e+04 </wgt>
<wgt id='1153'> +7.2499040e+04 </wgt>
<wgt id='1154'> +7.5688921e+04 </wgt>
<wgt id='1155'> +7.5370477e+04 </wgt>
<wgt id='1156'> +7.9399271e+04 </wgt>
<wgt id='1157'> +7.6636062e+04 </wgt>
<wgt id='1158'> +7.1255258e+04 </wgt>
<wgt id='1159'> +7.4998076e+04 </wgt>
<wgt id='1160'> +7.5851195e+04 </wgt>
<wgt id='1161'> +7.0308001e+04 </wgt>
<wgt id='1162'> +7.5670067e+04 </wgt>
<wgt id='1163'> +7.5830240e+04 </wgt>
<wgt id='1164'> +7.2105151e+04 </wgt>
<wgt id='1165'> +7.1880176e+04 </wgt>
<wgt id='1166'> +7.5191916e+04 </wgt>
<wgt id='1167'> +7.6761918e+04 </wgt>
<wgt id='1168'> +7.5036556e+04 </wgt>
<wgt id='1169'> +7.6315730e+04 </wgt>
<wgt id='1170'> +7.7963927e+04 </wgt>
<wgt id='1171'> +7.4528155e+04 </wgt>
<wgt id='1172'> +7.4116235e+04 </wgt>
<wgt id='1173'> +7.4660265e+04 </wgt>
<wgt id='1174'> +7.7861973e+04 </wgt>
<wgt id='1175'> +7.2922765e+04 </wgt>
<wgt id='1176'> +7.7190779e+04 </wgt>
<wgt id='1177'> +7.0442026e+04 </wgt>
<wgt id='1178'> +7.4463672e+04 </wgt>
<wgt id='1179'> +7.0512396e+04 </wgt>
<wgt id='1180'> +7.4995751e+04 </wgt>
<wgt id='1181'> +7.4904293e+04 </wgt>
<wgt id='1182'> +7.4965235e+04 </wgt>
<wgt id='1183'> +7.4503974e+04 </wgt>
<wgt id='1184'> +7.3773255e+04 </wgt>
<wgt id='1185'> +6.9078791e+04 </wgt>
<wgt id='1186'> +6.7582406e+04 </wgt>
<wgt id='1187'> +7.0912722e+04 </wgt>
<wgt id='1188'> +7.1470298e+04 </wgt>
<wgt id='1189'> +7.6982882e+04 </wgt>
<wgt id='1190'> +7.5311538e+04 </wgt>
<wgt id='1191'> +7.4337179e+04 </wgt>
<wgt id='1192'> +7.2067968e+04 </wgt>
<wgt id='1193'> +7.7078776e+04 </wgt>
<wgt id='1194'> +7.7984893e+04 </wgt>
<wgt id='1195'> +7.2407550e+04 </wgt>
<wgt id='1196'> +7.2676690e+04 </wgt>
<wgt id='1197'> +7.3675813e+04 </wgt>
<wgt id='1198'> +7.4222237e+04 </wgt>
<wgt id='1199'> +8.0334721e+04 </wgt>
<wgt id='1200'> +7.4686382e+04 </wgt>
<wgt id='1201'> +7.9997924e+04 </wgt>
<wgt id='1202'> +6.7491450e+04 </wgt>
<wgt id='1203'> +7.3434175e+04 </wgt>
<wgt id='1204'> +7.4207110e+04 </wgt>
<wgt id='1205'> +6.8215095e+04 </wgt>
<wgt id='1206'> +7.2653331e+04 </wgt>
<wgt id='1207'> +7.3439509e+04 </wgt>
<wgt id='1208'> +7.5998692e+04 </wgt>
<wgt id='1209'> +7.4430317e+04 </wgt>
<wgt id='1210'> +7.6495213e+04 </wgt>
<wgt id='1211'> +7.5748047e+04 </wgt>
<wgt id='1212'> +7.2808272e+04 </wgt>
<wgt id='1213'> +7.4967426e+04 </wgt>
<wgt id='1214'> +7.4716854e+04 </wgt>
<wgt id='1215'> +7.3176668e+04 </wgt>
<wgt id='1216'> +7.3479479e+04 </wgt>
<wgt id='1217'> +7.3165711e+04 </wgt>
<wgt id='1218'> +7.3791441e+04 </wgt>
<wgt id='1219'> +7.4071921e+04 </wgt>
<wgt id='1220'> +7.5151220e+04 </wgt>
<wgt id='1221'> +7.5639231e+04 </wgt>
<wgt id='1222'> +7.6020017e+04 </wgt>
<wgt id='1223'> +7.5233694e+04 </wgt>
<wgt id='1224'> +7.5221555e+04 </wgt>
<wgt id='1225'> +7.5331584e+04 </wgt>
<wgt id='1226'> +7.4969354e+04 </wgt>
<wgt id='1227'> +7.5876016e+04 </wgt>
<wgt id='1228'> +7.5136371e+04 </wgt>
<wgt id='1229'> +7.4875955e+04 </wgt>
<wgt id='1230'> +7.5277481e+04 </wgt>
<wgt id='1231'> +7.5476431e+04 </wgt>
<wgt id='1232'> +7.5311611e+04 </wgt>
<wgt id='1233'> +7.4690589e+04 </wgt>
<wgt id='1234'> +7.5163288e+04 </wgt>
<wgt id='1235'> +7.5431907e+04 </wgt>
<wgt id='1236'> +7.5662646e+04 </wgt>
<wgt id='1237'> +7.5308136e+04 </wgt>
<wgt id='1238'> +7.4948669e+04 </wgt>
<wgt id='1239'> +7.5736177e+04 </wgt>
<wgt id='1240'> +7.4983808e+04 </wgt>
<wgt id='1241'> +7.5483963e+04 </wgt>
<wgt id='1242'> +7.5359239e+04 </wgt>
<wgt id='1243'> +7.5312239e+04 </wgt>
<wgt id='1244'> +7.5380711e+04 </wgt>
<wgt id='1245'> +7.5099722e+04 </wgt>
<wgt id='1246'> +7.4848254e+04 </wgt>
<wgt id='1247'> +7.5610446e+04 </wgt>
<wgt id='1248'> +7.5212138e+04 </wgt>
<wgt id='1249'> +7.5228789e+04 </wgt>
<wgt id='1250'> +7.5524206e+04 </wgt>
<wgt id='1251'> +7.5302801e+04 </wgt>
<wgt id='1252'> +7.5331692e+04 </wgt>
<wgt id='1253'> +7.5035691e+04 </wgt>
<wgt id='1254'> +7.5869289e+04 </wgt>
<wgt id='1255'> +7.4684202e+04 </wgt>
<wgt id='1256'> +7.5338817e+04 </wgt>
<wgt id='1257'> +7.5240147e+04 </wgt>
<wgt id='1258'> +7.4812071e+04 </wgt>
<wgt id='1259'> +7.4615339e+04 </wgt>
<wgt id='1260'> +7.4950282e+04 </wgt>
<wgt id='1261'> +7.4873352e+04 </wgt>
<wgt id='1262'> +7.5007167e+04 </wgt>
<wgt id='1263'> +7.5063889e+04 </wgt>
<wgt id='1264'> +7.4833226e+04 </wgt>
<wgt id='1265'> +7.4987296e+04 </wgt>
<wgt id='1266'> +7.5564258e+04 </wgt>
<wgt id='1267'> +7.4885613e+04 </wgt>
<wgt id='1268'> +7.5074733e+04 </wgt>
<wgt id='1269'> +7.5046907e+04 </wgt>
<wgt id='1270'> +7.5368330e+04 </wgt>
<wgt id='1271'> +7.5292581e+04 </wgt>
<wgt id='1272'> +7.5122421e+04 </wgt>
<wgt id='1273'> +7.5542617e+04 </wgt>
<wgt id='1274'> +7.5650867e+04 </wgt>
<wgt id='1275'> +7.5339019e+04 </wgt>
<wgt id='1276'> +7.5159863e+04 </wgt>
<wgt id='1277'> +7.5386732e+04 </wgt>
<wgt id='1278'> +7.5109047e+04 </wgt>
<wgt id='1279'> +7.5282138e+04 </wgt>
<wgt id='1280'> +7.5008645e+04 </wgt>
<wgt id='1281'> +7.5033687e+04 </wgt>
<wgt id='1282'> +7.5437429e+04 </wgt>
<wgt id='1283'> +7.5451302e+04 </wgt>
<wgt id='1284'> +7.5219275e+04 </wgt>
<wgt id='1285'> +7.5156851e+04 </wgt>
<wgt id='1286'> +7.5424857e+04 </wgt>
<wgt id='1287'> +7.5183261e+04 </wgt>
<wgt id='1288'> +7.5175480e+04 </wgt>
<wgt id='1289'> +7.5307423e+04 </wgt>
<wgt id='1290'> +7.5227681e+04 </wgt>
<wgt id='1291'> +7.5259847e+04 </wgt>
<wgt id='1292'> +7.5157825e+04 </wgt>
<wgt id='1293'> +7.4970961e+04 </wgt>
<wgt id='1294'> +7.5178933e+04 </wgt>
<wgt id='1295'> +7.5251554e+04 </wgt>
<wgt id='1296'> +7.5041450e+04 </wgt>
<wgt id='1297'> +7.5265617e+04 </wgt>
<wgt id='1298'> +7.5162335e+04 </wgt>
<wgt id='1299'> +7.5191057e+04 </wgt>
<wgt id='1300'> +7.5286372e+04 </wgt>
<wgt id='1301'> +7.5334775e+04 </wgt>
<wgt id='1302'> +7.5228845e+04 </wgt>
<wgt id='1303'> +7.5237448e+04 </wgt>
<wgt id='1304'> +7.5289687e+04 </wgt>
<wgt id='1305'> +7.5163466e+04 </wgt>
<wgt id='1306'> +7.5352854e+04 </wgt>
<wgt id='1307'> +7.5164996e+04 </wgt>
<wgt id='1308'> +7.5169603e+04 </wgt>
<wgt id='1309'> +7.5257884e+04 </wgt>
<wgt id='1310'> +7.5226807e+04 </wgt>
<wgt id='1311'> +7.5125935e+04 </wgt>
<wgt id='1312'> +7.4955034e+04 </wgt>
<wgt id='1313'> +7.5313698e+04 </wgt>
<wgt id='1314'> +7.5261335e+04 </wgt>
<wgt id='1315'> +7.5126988e+04 </wgt>
<wgt id='1316'> +7.5341379e+04 </wgt>
<wgt id='1317'> +7.5308340e+04 </wgt>
<wgt id='1318'> +7.5341139e+04 </wgt>
<wgt id='1319'> +7.5217834e+04 </wgt>
<wgt id='1320'> +7.5247424e+04 </wgt>
<wgt id='1321'> +7.5207046e+04 </wgt>
<wgt id='1322'> +7.5337907e+04 </wgt>
<wgt id='1323'> +7.5125917e+04 </wgt>
<wgt id='1324'> +7.4840565e+04 </wgt>
<wgt id='1325'> +7.5838669e+04 </wgt>
<wgt id='1326'> +7.1930348e+04 </wgt>
<wgt id='1327'> +7.0541162e+04 </wgt>
<wgt id='1328'> +7.3509074e+04 </wgt>
<wgt id='1329'> +7.5233787e+04 </wgt>
<wgt id='1330'> +7.1773144e+04 </wgt>
<wgt id='1331'> +7.3155246e+04 </wgt>
<wgt id='1332'> +7.5446385e+04 </wgt>
<wgt id='1333'> +7.4390127e+04 </wgt>
<wgt id='1334'> +7.4380009e+04 </wgt>
<wgt id='1335'> +7.3075937e+04 </wgt>
<wgt id='1336'> +7.5041216e+04 </wgt>
<wgt id='1337'> +7.2289042e+04 </wgt>
<wgt id='1338'> +7.2664853e+04 </wgt>
<wgt id='1339'> +7.3323053e+04 </wgt>
<wgt id='1340'> +7.2416689e+04 </wgt>
<wgt id='1341'> +7.3956679e+04 </wgt>
<wgt id='1342'> +7.4280064e+04 </wgt>
<wgt id='1343'> +7.5555108e+04 </wgt>
<wgt id='1344'> +7.4125796e+04 </wgt>
<wgt id='1345'> +7.2936999e+04 </wgt>
<wgt id='1346'> +7.2942101e+04 </wgt>
<wgt id='1347'> +7.4189686e+04 </wgt>
<wgt id='1348'> +7.6583605e+04 </wgt>
<wgt id='1349'> +7.3528857e+04 </wgt>
<wgt id='1350'> +7.2109076e+04 </wgt>
<wgt id='1351'> +7.3687000e+04 </wgt>
<wgt id='1352'> +7.1982332e+04 </wgt>
<wgt id='1353'> +7.4766727e+04 </wgt>
<wgt id='1354'> +7.3673547e+04 </wgt>
<wgt id='1355'> +7.3732908e+04 </wgt>
<wgt id='1356'> +7.2342056e+04 </wgt>
<wgt id='1357'> +7.2328318e+04 </wgt>
<wgt id='1358'> +7.2512222e+04 </wgt>
<wgt id='1359'> +7.3552259e+04 </wgt>
<wgt id='1360'> +7.3375016e+04 </wgt>
<wgt id='1361'> +7.5193056e+04 </wgt>
<wgt id='1362'> +7.1566474e+04 </wgt>
<wgt id='1363'> +7.5662428e+04 </wgt>
<wgt id='1364'> +7.4192911e+04 </wgt>
<wgt id='1365'> +7.4859277e+04 </wgt>
<wgt id='1366'> +7.4524285e+04 </wgt>
<wgt id='1367'> +7.0928365e+04 </wgt>
<wgt id='1368'> +7.0661725e+04 </wgt>
<wgt id='1369'> +7.6350127e+04 </wgt>
<wgt id='1370'> +7.3247210e+04 </wgt>
<wgt id='1371'> +7.4462588e+04 </wgt>
<wgt id='1372'> +7.4171574e+04 </wgt>
<wgt id='1373'> +7.3225078e+04 </wgt>
<wgt id='1374'> +7.3433685e+04 </wgt>
<wgt id='1375'> +7.2404882e+04 </wgt>
<wgt id='1376'> +7.0463471e+04 </wgt>
<wgt id='1377'> +7.2306966e+04 </wgt>
<wgt id='1378'> +7.2571815e+04 </wgt>
<wgt id='1379'> +7.4006627e+04 </wgt>
<wgt id='1380'> +7.4521358e+04 </wgt>
<wgt id='1381'> +7.3977668e+04 </wgt>
<wgt id='1382'> +7.5086218e+04 </wgt>
<wgt id='1383'> +7.3594807e+04 </wgt>
<wgt id='1384'> +7.4470878e+04 </wgt>
<wgt id='1385'> +7.2009077e+04 </wgt>
<wgt id='1386'> +7.2758165e+04 </wgt>
<wgt id='1387'> +7.3002071e+04 </wgt>
<wgt id='1388'> +7.3869849e+04 </wgt>
<wgt id='1389'> +7.2835429e+04 </wgt>
<wgt id='1390'> +7.4639187e+04 </wgt>
<wgt id='1391'> +7.2084974e+04 </wgt>
<wgt id='1392'> +7.2047335e+04 </wgt>
<wgt id='1393'> +7.5695118e+04 </wgt>
<wgt id='1394'> +7.4859277e+04 </wgt>
<wgt id='1395'> +7.3822235e+04 </wgt>
<wgt id='1396'> +7.0518389e+04 </wgt>
<wgt id='1397'> +7.3866590e+04 </wgt>
<wgt id='1398'> +7.3343205e+04 </wgt>
<wgt id='1399'> +7.2443812e+04 </wgt>
<wgt id='1400'> +7.4628149e+04 </wgt>
<wgt id='1401'> +7.2707071e+04 </wgt>
<wgt id='1402'> +7.3697651e+04 </wgt>
<wgt id='1403'> +7.2402999e+04 </wgt>
<wgt id='1404'> +7.1513334e+04 </wgt>
<wgt id='1405'> +7.4521626e+04 </wgt>
<wgt id='1406'> +7.2511823e+04 </wgt>
<wgt id='1407'> +7.2267879e+04 </wgt>
<wgt id='1408'> +7.4836196e+04 </wgt>
<wgt id='1409'> +7.3719647e+04 </wgt>
<wgt id='1410'> +7.4031359e+04 </wgt>
<wgt id='1411'> +7.1572861e+04 </wgt>
<wgt id='1412'> +7.3269724e+04 </wgt>
<wgt id='1413'> +7.4175548e+04 </wgt>
<wgt id='1414'> +7.5158761e+04 </wgt>
<wgt id='1415'> +7.4390996e+04 </wgt>
<wgt id='1416'> +7.3090487e+04 </wgt>
<wgt id='1417'> +7.5682224e+04 </wgt>
<wgt id='1418'> +7.3866599e+04 </wgt>
<wgt id='1419'> +7.3865746e+04 </wgt>
<wgt id='1420'> +7.6461911e+04 </wgt>
<wgt id='1421'> +7.4411230e+04 </wgt>
<wgt id='1422'> +7.1361101e+04 </wgt>
<wgt id='1423'> +7.3324752e+04 </wgt>
<wgt id='1424'> +7.1937279e+04 </wgt>
<wgt id='1425'> +7.3942751e+04 </wgt>
<wgt id='1426'> +7.2742570e+04 </wgt>
<wgt id='1427'> +7.2287517e+04 </wgt>
<wgt id='1428'> +7.3583168e+04 </wgt>
<wgt id='1429'> +7.3696033e+04 </wgt>
<wgt id='1430'> +7.3230815e+04 </wgt>
<wgt id='1431'> +7.3495929e+04 </wgt>
<wgt id='1432'> +7.3620837e+04 </wgt>
<wgt id='1433'> +7.3620366e+04 </wgt>
<wgt id='1434'> +7.3484756e+04 </wgt>
<wgt id='1435'> +7.3610461e+04 </wgt>
<wgt id='1436'> +7.3158547e+04 </wgt>
<wgt id='1437'> +7.3886998e+04 </wgt>
<wgt id='1438'> +7.3525910e+04 </wgt>
<wgt id='1439'> +7.3994882e+04 </wgt>
<wgt id='1440'> +7.3390406e+04 </wgt>
<wgt id='1441'> +7.3326459e+04 </wgt>
<wgt id='1442'> +7.3235041e+04 </wgt>
<wgt id='1443'> +7.3502320e+04 </wgt>
<wgt id='1444'> +7.4204587e+04 </wgt>
<wgt id='1445'> +7.3294432e+04 </wgt>
<wgt id='1446'> +7.3404411e+04 </wgt>
<wgt id='1447'> +7.3666074e+04 </wgt>
<wgt id='1448'> +7.3655910e+04 </wgt>
<wgt id='1449'> +7.3540980e+04 </wgt>
<wgt id='1450'> +7.3668401e+04 </wgt>
<wgt id='1451'> +7.3612579e+04 </wgt>
<wgt id='1452'> +7.3742849e+04 </wgt>
<wgt id='1453'> +7.3382250e+04 </wgt>
<wgt id='1454'> +7.3432366e+04 </wgt>
<wgt id='1455'> +7.3506448e+04 </wgt>
<wgt id='1456'> +7.3347174e+04 </wgt>
<wgt id='1457'> +7.3801813e+04 </wgt>
<wgt id='1458'> +7.3381132e+04 </wgt>
<wgt id='1459'> +7.3306078e+04 </wgt>
<wgt id='1460'> +7.3676093e+04 </wgt>
<wgt id='1461'> +7.3355792e+04 </wgt>
<wgt id='1462'> +7.3255236e+04 </wgt>
<wgt id='1463'> +7.3609784e+04 </wgt>
<wgt id='1464'> +7.3510447e+04 </wgt>
<wgt id='1465'> +7.3651573e+04 </wgt>
<wgt id='1466'> +7.3449089e+04 </wgt>
<wgt id='1467'> +7.3420636e+04 </wgt>
<wgt id='1468'> +7.3489887e+04 </wgt>
<wgt id='1469'> +7.3417275e+04 </wgt>
<wgt id='1470'> +7.3636909e+04 </wgt>
<wgt id='1471'> +7.3567122e+04 </wgt>
<wgt id='1472'> +7.3531812e+04 </wgt>
<wgt id='1473'> +7.3552990e+04 </wgt>
<wgt id='1474'> +7.3444602e+04 </wgt>
<wgt id='1475'> +7.3566419e+04 </wgt>
<wgt id='1476'> +7.3558120e+04 </wgt>
<wgt id='1477'> +7.3475661e+04 </wgt>
<wgt id='1478'> +7.3556825e+04 </wgt>
<wgt id='1479'> +7.3530640e+04 </wgt>
<wgt id='1480'> +7.3411057e+04 </wgt>
<wgt id='1481'> +7.3524149e+04 </wgt>
<wgt id='1482'> +7.3696033e+04 </wgt>
<wgt id='1483'> +7.3230815e+04 </wgt>
<wgt id='1484'> +7.2678021e+04 </wgt>
<wgt id='1485'> +7.1469026e+04 </wgt>
<wgt id='1486'> +7.3713444e+04 </wgt>
<wgt id='1487'> +7.2164554e+04 </wgt>
<wgt id='1488'> +7.2014096e+04 </wgt>
<wgt id='1489'> +7.1695225e+04 </wgt>
<wgt id='1490'> +7.3345876e+04 </wgt>
<wgt id='1491'> +7.2186629e+04 </wgt>
<wgt id='1492'> +7.1302169e+04 </wgt>
<wgt id='1493'> +7.2752206e+04 </wgt>
<wgt id='1494'> +7.3600588e+04 </wgt>
<wgt id='1495'> +7.1070992e+04 </wgt>
<wgt id='1496'> +7.2064021e+04 </wgt>
<wgt id='1497'> +7.2099496e+04 </wgt>
<wgt id='1498'> +7.4246453e+04 </wgt>
<wgt id='1499'> +7.3810048e+04 </wgt>
<wgt id='1500'> +7.5390086e+04 </wgt>
<wgt id='1501'> +7.4331426e+04 </wgt>
<wgt id='1502'> +7.3290645e+04 </wgt>
<wgt id='1503'> +7.1515633e+04 </wgt>
<wgt id='1504'> +7.3466317e+04 </wgt>
<wgt id='1505'> +7.5089509e+04 </wgt>
<wgt id='1506'> +7.2643516e+04 </wgt>
<wgt id='1507'> +7.2717331e+04 </wgt>
<wgt id='1508'> +7.2358570e+04 </wgt>
<wgt id='1509'> +6.9731208e+04 </wgt>
<wgt id='1510'> +6.8758324e+04 </wgt>
<wgt id='1511'> +7.1449852e+04 </wgt>
<wgt id='1512'> +7.4265202e+04 </wgt>
<wgt id='1513'> +7.2777272e+04 </wgt>
<wgt id='1514'> +7.2232295e+04 </wgt>
<wgt id='1515'> +7.1902841e+04 </wgt>
<wgt id='1516'> +7.4658061e+04 </wgt>
<wgt id='1517'> +7.2843564e+04 </wgt>
<wgt id='1518'> +7.2460905e+04 </wgt>
<wgt id='1519'> +7.1734205e+04 </wgt>
<wgt id='1520'> +7.2673750e+04 </wgt>
<wgt id='1521'> +7.4285800e+04 </wgt>
<wgt id='1522'> +7.2527933e+04 </wgt>
<wgt id='1523'> +7.2524785e+04 </wgt>
<wgt id='1524'> +7.2586237e+04 </wgt>
<wgt id='1525'> +7.4267236e+04 </wgt>
<wgt id='1526'> +7.2807773e+04 </wgt>
<wgt id='1527'> +7.2361990e+04 </wgt>
<wgt id='1528'> +7.1976175e+04 </wgt>
<wgt id='1529'> +7.1515206e+04 </wgt>
<wgt id='1530'> +7.2414147e+04 </wgt>
<wgt id='1531'> +7.0936898e+04 </wgt>
<wgt id='1532'> +7.6435343e+04 </wgt>
<wgt id='1533'> +7.2128409e+04 </wgt>
<wgt id='1534'> +7.2719076e+04 </wgt>
<wgt id='1535'> +7.1628038e+04 </wgt>
<wgt id='1536'> +7.2211387e+04 </wgt>
<wgt id='1537'> +7.1401673e+04 </wgt>
<wgt id='1538'> +7.0391369e+04 </wgt>
<wgt id='1539'> +7.2186071e+04 </wgt>
<wgt id='1540'> +7.2642684e+04 </wgt>
<wgt id='1541'> +7.3910551e+04 </wgt>
<wgt id='1542'> +7.1591205e+04 </wgt>
<wgt id='1543'> +7.2122290e+04 </wgt>
<wgt id='1544'> +7.3287102e+04 </wgt>
<wgt id='1545'> +7.4611770e+04 </wgt>
<wgt id='1546'> +7.3567506e+04 </wgt>
<wgt id='1547'> +7.2570200e+04 </wgt>
<wgt id='1548'> +7.3045189e+04 </wgt>
<wgt id='1549'> +7.1178963e+04 </wgt>
<wgt id='1550'> +7.2669272e+04 </wgt>
<wgt id='1551'> +7.4136736e+04 </wgt>
<wgt id='1552'> +7.3286004e+04 </wgt>
<wgt id='1553'> +7.3114291e+04 </wgt>
<wgt id='1554'> +7.1859006e+04 </wgt>
<wgt id='1555'> +7.1244098e+04 </wgt>
<wgt id='1556'> +7.1116541e+04 </wgt>
<wgt id='1557'> +7.1380332e+04 </wgt>
<wgt id='1558'> +7.3539485e+04 </wgt>
<wgt id='1559'> +7.2599872e+04 </wgt>
<wgt id='1560'> +7.3946237e+04 </wgt>
<wgt id='1561'> +7.1705867e+04 </wgt>
<wgt id='1562'> +7.3153917e+04 </wgt>
<wgt id='1563'> +7.0832150e+04 </wgt>
<wgt id='1564'> +7.3890838e+04 </wgt>
<wgt id='1565'> +7.2595300e+04 </wgt>
<wgt id='1566'> +7.4235814e+04 </wgt>
<wgt id='1567'> +7.5451936e+04 </wgt>
<wgt id='1568'> +7.3520371e+04 </wgt>
<wgt id='1569'> +7.2031410e+04 </wgt>
<wgt id='1570'> +7.3109966e+04 </wgt>
<wgt id='1571'> +7.2338290e+04 </wgt>
<wgt id='1572'> +7.3277019e+04 </wgt>
<wgt id='1573'> +7.2578231e+04 </wgt>
<wgt id='1574'> +7.1172103e+04 </wgt>
<wgt id='1575'> +7.4486625e+04 </wgt>
<wgt id='1576'> +7.2709590e+04 </wgt>
<wgt id='1577'> +7.1966877e+04 </wgt>
<wgt id='1578'> +7.3129488e+04 </wgt>
<wgt id='1579'> +7.3566493e+04 </wgt>
<wgt id='1580'> +7.2111189e+04 </wgt>
<wgt id='1581'> +7.2626906e+04 </wgt>
<wgt id='1582'> +7.3579155e+04 </wgt>
<wgt id='1583'> +7.2551666e+04 </wgt>
<wgt id='1584'> +7.2705566e+04 </wgt>
<wgt id='1585'> +7.4222588e+04 </wgt>
<wgt id='1586'> +7.3869810e+04 </wgt>
<wgt id='1587'> +7.3585309e+04 </wgt>
<wgt id='1588'> +7.3696033e+04 </wgt>
<wgt id='1589'> +7.3289334e+04 </wgt>
<wgt id='1590'> +7.3545946e+04 </wgt>
<wgt id='1591'> +7.3230815e+04 </wgt>
<wgt id='1592'> +7.3206429e+04 </wgt>
<wgt id='1593'> +7.1877084e+04 </wgt>
<wgt id='1594'> +7.1577756e+04 </wgt>
<wgt id='1595'> +6.9699024e+04 </wgt>
<wgt id='1596'> +6.9766510e+04 </wgt>
<wgt id='1597'> +7.4438865e+04 </wgt>
<wgt id='1598'> +6.9196388e+04 </wgt>
<wgt id='1599'> +7.4168598e+04 </wgt>
<wgt id='1600'> +6.8881424e+04 </wgt>
<wgt id='1601'> +7.4532438e+04 </wgt>
<wgt id='1602'> +7.0335879e+04 </wgt>
<wgt id='1603'> +7.3263559e+04 </wgt>
<wgt id='1604'> +7.2107454e+04 </wgt>
<wgt id='1605'> +7.2173040e+04 </wgt>
<wgt id='1606'> +7.3042629e+04 </wgt>
<wgt id='1607'> +6.9541250e+04 </wgt>
<wgt id='1608'> +7.1756085e+04 </wgt>
<wgt id='1609'> +7.0971757e+04 </wgt>
<wgt id='1610'> +7.1594844e+04 </wgt>
<wgt id='1611'> +7.1702416e+04 </wgt>
<wgt id='1612'> +7.3262124e+04 </wgt>
<wgt id='1613'> +6.8588127e+04 </wgt>
<wgt id='1614'> +7.1341192e+04 </wgt>
<wgt id='1615'> +7.2708365e+04 </wgt>
<wgt id='1616'> +7.1842166e+04 </wgt>
<wgt id='1617'> +7.1115838e+04 </wgt>
<wgt id='1618'> +7.2356393e+04 </wgt>
<wgt id='1619'> +7.0872175e+04 </wgt>
<wgt id='1620'> +7.1729024e+04 </wgt>
<wgt id='1621'> +7.1745963e+04 </wgt>
<wgt id='1622'> +7.1649028e+04 </wgt>
<wgt id='1623'> +7.0898357e+04 </wgt>
<wgt id='1624'> +7.1740228e+04 </wgt>
<wgt id='1625'> +7.1141141e+04 </wgt>
<wgt id='1626'> +7.0509700e+04 </wgt>
<wgt id='1627'> +7.2647777e+04 </wgt>
<wgt id='1628'> +7.2105210e+04 </wgt>
<wgt id='1629'> +7.1650416e+04 </wgt>
<wgt id='1630'> +7.3472796e+04 </wgt>
<wgt id='1631'> +6.9665455e+04 </wgt>
<wgt id='1632'> +6.9891428e+04 </wgt>
<wgt id='1633'> +7.3335595e+04 </wgt>
<wgt id='1634'> +7.2682553e+04 </wgt>
<wgt id='1635'> +7.0775663e+04 </wgt>
<wgt id='1636'> +7.1645629e+04 </wgt>
<wgt id='1637'> +7.1925138e+04 </wgt>
<wgt id='1638'> +7.2218678e+04 </wgt>
<wgt id='1639'> +7.1615490e+04 </wgt>
<wgt id='1640'> +7.2587249e+04 </wgt>
<wgt id='1641'> +7.0773214e+04 </wgt>
<wgt id='1642'> +7.2549049e+04 </wgt>
<wgt id='1643'> +7.0317284e+04 </wgt>
<wgt id='1644'> +7.1858641e+04 </wgt>
<wgt id='1645'> +7.0652741e+04 </wgt>
<wgt id='1646'> +7.1514186e+04 </wgt>
<wgt id='1647'> +7.2304049e+04 </wgt>
<wgt id='1648'> +7.1459273e+04 </wgt>
<wgt id='1649'> +7.1768410e+04 </wgt>
<wgt id='1650'> +7.2188881e+04 </wgt>
<wgt id='1651'> +7.1321742e+04 </wgt>
<wgt id='1652'> +7.2053836e+04 </wgt>
<wgt id='1653'> +7.1949206e+04 </wgt>
<wgt id='1654'> +7.1837808e+04 </wgt>
<wgt id='1655'> +7.1834500e+04 </wgt>
<wgt id='1656'> +7.2460066e+04 </wgt>
<wgt id='1657'> +7.0652644e+04 </wgt>
<wgt id='1658'> +7.2332080e+04 </wgt>
<wgt id='1659'> +7.1263794e+04 </wgt>
<wgt id='1660'> +7.3244386e+04 </wgt>
<wgt id='1661'> +7.3086706e+04 </wgt>
<wgt id='1662'> +7.1306084e+04 </wgt>
<wgt id='1663'> +7.2012197e+04 </wgt>
<wgt id='1664'> +7.1175133e+04 </wgt>
<wgt id='1665'> +7.2444081e+04 </wgt>
<wgt id='1666'> +7.1794130e+04 </wgt>
<wgt id='1667'> +7.1646660e+04 </wgt>
<wgt id='1668'> +7.2866551e+04 </wgt>
<wgt id='1669'> +7.2778425e+04 </wgt>
<wgt id='1670'> +7.1489116e+04 </wgt>
<wgt id='1671'> +7.3201574e+04 </wgt>
<wgt id='1672'> +7.1037119e+04 </wgt>
<wgt id='1673'> +7.2337924e+04 </wgt>
<wgt id='1674'> +7.2455386e+04 </wgt>
<wgt id='1675'> +7.4344435e+04 </wgt>
<wgt id='1676'> +7.0221436e+04 </wgt>
<wgt id='1677'> +7.1956127e+04 </wgt>
<wgt id='1678'> +7.2710441e+04 </wgt>
<wgt id='1679'> +7.1627374e+04 </wgt>
<wgt id='1680'> +7.3705684e+04 </wgt>
<wgt id='1681'> +7.1005808e+04 </wgt>
<wgt id='1682'> +7.3221192e+04 </wgt>
<wgt id='1683'> +7.2717777e+04 </wgt>
<wgt id='1684'> +7.2157122e+04 </wgt>
<wgt id='1685'> +7.2624161e+04 </wgt>
<wgt id='1686'> +7.1688689e+04 </wgt>
<wgt id='1687'> +7.3711786e+04 </wgt>
<wgt id='1688'> +7.0290022e+04 </wgt>
<wgt id='1689'> +7.3485102e+04 </wgt>
<wgt id='1690'> +7.1487681e+04 </wgt>
<wgt id='1691'> +7.2554454e+04 </wgt>
<wgt id='1692'> +7.1668189e+04 </wgt>
<wgt id='1693'> +7.3093426e+04 </wgt>
<wgt id='1694'> +7.2090088e+04 </wgt>
<wgt id='1695'> +7.1651763e+04 </wgt>
<wgt id='1696'> +7.2539596e+04 </wgt>
<wgt id='1697'> +7.3870354e+04 </wgt>
<wgt id='1698'> +7.0904685e+04 </wgt>
<wgt id='1699'> +7.0227570e+04 </wgt>
<wgt id='1700'> +7.5409757e+04 </wgt>
<wgt id='1701'> +7.2941602e+04 </wgt>
<wgt id='1702'> +7.2042896e+04 </wgt>
<wgt id='1703'> +7.2829112e+04 </wgt>
<wgt id='1704'> +7.2340700e+04 </wgt>
<wgt id='1705'> +7.0951997e+04 </wgt>
<wgt id='1706'> +7.3642316e+04 </wgt>
<wgt id='1707'> +7.0326354e+04 </wgt>
<wgt id='1708'> +7.3923312e+04 </wgt>
<wgt id='1709'> +7.1798410e+04 </wgt>
<wgt id='1710'> +7.3080576e+04 </wgt>
<wgt id='1711'> +7.1037576e+04 </wgt>
<wgt id='1712'> +7.2924330e+04 </wgt>
<wgt id='1713'> +7.2199740e+04 </wgt>
<wgt id='1714'> +7.2326705e+04 </wgt>
<wgt id='1715'> +6.9263760e+04 </wgt>
<wgt id='1716'> +7.3292632e+04 </wgt>
<wgt id='1717'> +7.1580765e+04 </wgt>
<wgt id='1718'> +7.1378860e+04 </wgt>
<wgt id='1719'> +7.1836573e+04 </wgt>
<wgt id='1720'> +7.1468326e+04 </wgt>
<wgt id='1721'> +7.1683554e+04 </wgt>
<wgt id='1722'> +7.1503770e+04 </wgt>
<wgt id='1723'> +7.1706895e+04 </wgt>
<wgt id='1724'> +7.2003663e+04 </wgt>
<wgt id='1725'> +7.1237449e+04 </wgt>
<wgt id='1726'> +7.1563595e+04 </wgt>
<wgt id='1727'> +7.1597777e+04 </wgt>
<wgt id='1728'> +7.0489438e+04 </wgt>
<wgt id='1729'> +7.2643581e+04 </wgt>
<wgt id='1730'> +7.1957984e+04 </wgt>
<wgt id='1731'> +7.1312755e+04 </wgt>
<wgt id='1732'> +7.2117056e+04 </wgt>
<wgt id='1733'> +7.2117056e+04 </wgt>
<wgt id='1734'> +7.1497777e+04 </wgt>
<wgt id='1735'> +7.1633118e+04 </wgt>
<wgt id='1736'> +7.1286960e+04 </wgt>
<wgt id='1737'> +7.1987460e+04 </wgt>
<wgt id='1738'> +7.1862417e+04 </wgt>
<wgt id='1739'> +7.1063349e+04 </wgt>
<wgt id='1740'> +7.1484706e+04 </wgt>
<wgt id='1741'> +7.1809705e+04 </wgt>
<wgt id='1742'> +7.1505342e+04 </wgt>
<wgt id='1743'> +7.1665232e+04 </wgt>
<wgt id='1744'> +7.1343507e+04 </wgt>
<wgt id='1745'> +7.2233573e+04 </wgt>
<wgt id='1746'> +7.1592974e+04 </wgt>
<wgt id='1747'> +7.1558565e+04 </wgt>
<wgt id='1748'> +7.1813127e+04 </wgt>
<wgt id='1749'> +7.0806986e+04 </wgt>
<wgt id='1750'> +7.1612740e+04 </wgt>
<wgt id='1751'> +7.1545301e+04 </wgt>
<wgt id='1752'> +7.1178774e+04 </wgt>
<wgt id='1753'> +7.2131067e+04 </wgt>
<wgt id='1754'> +7.1190973e+04 </wgt>
<wgt id='1755'> +7.1796058e+04 </wgt>
<wgt id='1756'> +7.1634098e+04 </wgt>
<wgt id='1757'> +7.1451257e+04 </wgt>
<wgt id='1758'> +7.1863460e+04 </wgt>
<wgt id='1759'> +7.1193143e+04 </wgt>
<wgt id='1760'> +7.1890381e+04 </wgt>
<wgt id='1761'> +7.1355925e+04 </wgt>
<wgt id='1762'> +7.1569276e+04 </wgt>
<wgt id='1763'> +7.1341348e+04 </wgt>
<wgt id='1764'> +7.1363377e+04 </wgt>
<wgt id='1765'> +7.2658752e+04 </wgt>
<wgt id='1766'> +7.1828672e+04 </wgt>
<wgt id='1767'> +7.1293422e+04 </wgt>
<wgt id='1768'> +7.1667347e+04 </wgt>
<wgt id='1769'> +7.1524584e+04 </wgt>
<wgt id='1770'> +7.1264887e+04 </wgt>
<wgt id='1771'> +7.1890517e+04 </wgt>
<wgt id='1772'> +7.1357792e+04 </wgt>
<wgt id='1773'> +7.2133078e+04 </wgt>
<wgt id='1774'> +7.0990741e+04 </wgt>
<wgt id='1775'> +7.1945608e+04 </wgt>
<wgt id='1776'> +7.2009582e+04 </wgt>
<wgt id='1777'> +7.1396666e+04 </wgt>
<wgt id='1778'> +7.0973727e+04 </wgt>
<wgt id='1779'> +7.1691027e+04 </wgt>
<wgt id='1780'> +7.2615101e+04 </wgt>
<wgt id='1781'> +7.1507146e+04 </wgt>
<wgt id='1782'> +7.1580765e+04 </wgt>
<wgt id='1783'> +7.1633542e+04 </wgt>
<wgt id='1784'> +7.1987136e+04 </wgt>
<wgt id='1785'> +7.2108329e+04 </wgt>
<wgt id='1786'> +7.0896882e+04 </wgt>
<wgt id='1787'> +7.2033874e+04 </wgt>
<wgt id='1788'> +7.0126717e+04 </wgt>
<wgt id='1789'> +7.1994985e+04 </wgt>
<wgt id='1790'> +7.2490496e+04 </wgt>
<wgt id='1791'> +7.2041618e+04 </wgt>
<wgt id='1792'> +7.1870478e+04 </wgt>
<wgt id='1793'> +7.2133356e+04 </wgt>
<wgt id='1794'> +7.1876999e+04 </wgt>
<wgt id='1795'> +7.1342704e+04 </wgt>
<wgt id='1796'> +7.2129813e+04 </wgt>
<wgt id='1797'> +7.1761987e+04 </wgt>
<wgt id='1798'> +7.2003095e+04 </wgt>
<wgt id='1799'> +7.2225443e+04 </wgt>
<wgt id='1800'> +7.2148700e+04 </wgt>
<wgt id='1801'> +7.3077617e+04 </wgt>
<wgt id='1802'> +7.1921762e+04 </wgt>
<wgt id='1803'> +7.2019752e+04 </wgt>
<wgt id='1804'> +7.2029888e+04 </wgt>
<wgt id='1805'> +7.1612949e+04 </wgt>
<wgt id='1806'> +7.1887511e+04 </wgt>
<wgt id='1807'> +7.2005641e+04 </wgt>
<wgt id='1808'> +7.2075212e+04 </wgt>
<wgt id='1809'> +7.2095626e+04 </wgt>
<wgt id='1810'> +7.1817611e+04 </wgt>
<wgt id='1811'> +7.2100706e+04 </wgt>
<wgt id='1812'> +7.1919391e+04 </wgt>
<wgt id='1813'> +7.1803548e+04 </wgt>
<wgt id='1814'> +7.2020770e+04 </wgt>
<wgt id='1815'> +7.1996002e+04 </wgt>
<wgt id='1816'> +7.1901911e+04 </wgt>
<wgt id='1817'> +7.1904967e+04 </wgt>
<wgt id='1818'> +7.2102965e+04 </wgt>
<wgt id='1819'> +7.1989261e+04 </wgt>
<wgt id='1820'> +7.2011327e+04 </wgt>
<wgt id='1821'> +7.2944171e+04 </wgt>
<wgt id='1822'> +7.1882088e+04 </wgt>
<wgt id='1823'> +7.2025191e+04 </wgt>
<wgt id='1824'> +7.1955906e+04 </wgt>
<wgt id='1825'> +7.2038974e+04 </wgt>
<wgt id='1826'> +7.2784518e+04 </wgt>
<wgt id='1827'> +7.8874025e+04 </wgt>
<wgt id='1828'> +7.9117429e+04 </wgt>
<wgt id='1829'> +7.8671348e+04 </wgt>
<wgt id='1830'> +7.8765783e+04 </wgt>
<wgt id='1831'> +7.9021373e+04 </wgt>
<wgt id='1832'> +7.8976401e+04 </wgt>
<wgt id='1833'> +7.8811280e+04 </wgt>
<wgt id='1834'> +7.8258335e+04 </wgt>
<wgt id='1835'> +7.9509668e+04 </wgt>
<wgt id='1836'> +7.9293981e+04 </wgt>
<wgt id='1837'> +7.8485995e+04 </wgt>
<wgt id='1838'> +7.8997720e+04 </wgt>
<wgt id='1839'> +7.8792348e+04 </wgt>
<wgt id='1840'> +7.8744655e+04 </wgt>
<wgt id='1841'> +7.9048139e+04 </wgt>
<wgt id='1842'> +7.8914337e+04 </wgt>
<wgt id='1843'> +7.9007834e+04 </wgt>
<wgt id='1844'> +7.8566203e+04 </wgt>
<wgt id='1845'> +7.9208332e+04 </wgt>
<wgt id='1846'> +7.9290294e+04 </wgt>
<wgt id='1847'> +7.8503970e+04 </wgt>
<wgt id='1848'> +7.7611400e+04 </wgt>
<wgt id='1849'> +8.0095679e+04 </wgt>
<wgt id='1850'> +7.7882491e+04 </wgt>
<wgt id='1851'> +7.9918173e+04 </wgt>
<wgt id='1852'> +7.8801624e+04 </wgt>
<wgt id='1853'> +7.8721810e+04 </wgt>
<wgt id='1854'> +7.8462824e+04 </wgt>
<wgt id='1855'> +7.9004431e+04 </wgt>
<wgt id='1856'> +6.8514745e+04 </wgt>
<wgt id='1857'> +6.8501624e+04 </wgt>
<wgt id='1858'> +6.8451985e+04 </wgt>
<wgt id='1859'> +6.8657204e+04 </wgt>
<wgt id='1860'> +6.8517745e+04 </wgt>
<wgt id='1861'> +6.8681658e+04 </wgt>
<wgt id='1862'> +6.8169292e+04 </wgt>
<wgt id='1863'> +6.8643758e+04 </wgt>
<wgt id='1864'> +6.8218811e+04 </wgt>
<wgt id='1865'> +6.8347121e+04 </wgt>
<wgt id='1866'> +6.8781038e+04 </wgt>
<wgt id='1867'> +6.8451370e+04 </wgt>
<wgt id='1868'> +6.8537508e+04 </wgt>
<wgt id='1869'> +6.8658030e+04 </wgt>
<wgt id='1870'> +6.8283995e+04 </wgt>
<wgt id='1871'> +6.8687413e+04 </wgt>
<wgt id='1872'> +6.8332453e+04 </wgt>
<wgt id='1873'> +6.8495800e+04 </wgt>
<wgt id='1874'> +6.8572399e+04 </wgt>
<wgt id='1875'> +6.8687303e+04 </wgt>
<wgt id='1876'> +6.8583282e+04 </wgt>
<wgt id='1877'> +6.8289747e+04 </wgt>
<wgt id='1878'> +6.8457201e+04 </wgt>
<wgt id='1879'> +6.8303769e+04 </wgt>
<wgt id='1880'> +6.8553578e+04 </wgt>
<wgt id='1881'> +6.8530309e+04 </wgt>
<wgt id='1882'> +6.8913628e+04 </wgt>
<wgt id='1883'> +6.8433625e+04 </wgt>
<wgt id='1884'> +6.9046786e+04 </wgt>
<wgt id='1885'> +6.8197791e+04 </wgt>
<wgt id='1886'> +8.8276582e+04 </wgt>
<wgt id='1887'> +8.7490788e+04 </wgt>
<wgt id='1888'> +6.9397459e+04 </wgt>
<wgt id='1889'> +7.7555225e+04 </wgt>
</rwgt>
</event>
<event npLO=" -1 " npNLO=" 0 ">
 5      0 +7.4519530e+04 3.00000000e+01 7.55820760e-03 1.18056770e-01
       -1 -1    0    0    0  501 +0.0000000000e+00 +0.0000000000e+00 +1.8162522953e+00 1.8162522953e+00 0.0000000000e+00 0.0000e+00 1.0000e+00
        2 -1    0    0  501    0 +0.0000000000e+00 +0.0000000000e+00 -9.0856779821e+02 9.0856779821e+02 0.0000000000e+00 0.0000e+00 -1.0000e+00
       24  2    1    2    0    0 +0.0000000000e+00 +0.0000000000e+00 -9.0675154591e+02 9.1038405050e+02 8.1245020745e+01 0.0000e+00 0.0000e+00
      -13  1    3    3    0    0 -1.6064814598e+01 -2.4105036976e+01 -1.3425604857e+02 1.3734561389e+02 0.0000000000e+00 0.0000e+00 1.0000e+00
       14  1    3    3    0    0 +1.6064814598e+01 +2.4105036976e+01 -7.7249549734e+02 7.7303843661e+02 0.0000000000e+00 0.0000e+00 -1.0000e+00
#aMCatNLO 1  0  0  1  2 0.58713730E+02 0.00000000E+00 -9  5  0 0.00000000E+00 0.00000000E+00 0.00000000E+00 0.00000000E+00 0.00000000E+00
<rwgt>
<wgt id='1001'> +7.4519530e+04 </wgt>
<wgt id='1002'> +7.4577523e+04 </wgt>
<wgt id='1003'> +7.4447299e+04 </wgt>
<wgt id='1004'> +8.1954831e+04 </wgt>
<wgt id='1005'> +8.2083504e+04 </wgt>
<wgt id='1006'> +8.1794565e+04 </wgt>
<wgt id='1007'> +6.6217143e+04 </wgt>
<wgt id='1008'> +6.6217085e+04 </wgt>
<wgt id='1009'> +6.6217216e+04 </wgt>
<wgt id='1010'> +7.4519530e+04 </wgt>
<wgt id='1011'> +7.4542131e+04 </wgt>
<wgt id='1012'> +7.4747845e+04 </wgt>
<wgt id='1013'> +7.3897176e+04 </wgt>
<wgt id='1014'> +7.4401487e+04 </wgt>
<wgt id='1015'> +7.4283640e+04 </wgt>
<wgt id='1016'> +7.4494721e+04 </wgt>
<wgt id='1017'> +7.4556001e+04 </wgt>
<wgt id='1018'> +7.4466772e+04 </wgt>
<wgt id='1019'> +7.4183667e+04 </wgt>
<wgt id='1020'> +7.4180089e+04 </wgt>
<wgt id='1021'> +7.4567041e+04 </wgt>
<wgt id='1022'> +7.4364129e+04 </wgt>
<wgt id='1023'> +7.4593827e+04 </wgt>
<wgt id='1024'> +7.4440506e+04 </wgt>
<wgt id='1025'> +7.4671894e+04 </wgt>
<wgt id='1026'> +7.4525721e+04 </wgt>
<wgt id='1027'> +7.4493400e+04 </wgt>
<wgt id='1028'> +7.4627114e+04 </wgt>
<wgt id='1029'> +7.4782068e+04 </wgt>
<wgt id='1030'> +7.4913560e+04 </wgt>
<wgt id='1031'> +7.4593482e+04 </wgt>
<wgt id='1032'> +7.4529548e+04 </wgt>
<wgt id='1033'> +7.4451059e+04 </wgt>
<wgt id='1034'> +7.4716924e+04 </wgt>
<wgt id='1035'> +7.4491249e+04 </wgt>
<wgt id='1036'> +7.4359026e+04 </wgt>
<wgt id='1037'> +7.4636195e+04 </wgt>
<wgt id='1038'> +7.4651051e+04 </wgt>
<wgt id='1039'> +7.4809943e+04 </wgt>
<wgt id='1040'> +7.4375080e+04 </wgt>
<wgt id='1041'> +7.4996914e+04 </wgt>
<wgt id='1042'> +7.4569792e+04 </wgt>
<wgt id='1043'> +7.4565472e+04 </wgt>
<wgt id='1044'> +7.4674491e+04 </wgt>
<wgt id='1045'> +7.4496440e+04 </wgt>
<wgt id='1046'> +7.4327603e+04 </wgt>
<wgt id='1047'> +7.4705984e+04 </wgt>
<wgt id='1048'> +7.4507046e+04 </wgt>
<wgt id='1049'> +7.4486373e+04 </wgt>
<wgt id='1050'> +7.4661612e+04 </wgt>
<wgt id='1051'> +7.4793844e+04 </wgt>
<wgt id='1052'> +7.4581608e+04 </wgt>
<wgt id='1053'> +7.4582144e+04 </wgt>
<wgt id='1054'> +7.4356193e+04 </wgt>
<wgt id='1055'> +7.4484793e+04 </wgt>
<wgt id='1056'> +7.4461499e+04 </wgt>
<wgt id='1057'> +7.4414891e+04 </wgt>
<wgt id='1058'> +7.4356972e+04 </wgt>
<wgt id='1059'> +7.4569760e+04 </wgt>
<wgt id='1060'> +7.4424901e+04 </wgt>
<wgt id='1061'> +7.4465180e+04 </wgt>
<wgt id='1062'> +7.4568237e+04 </wgt>
<wgt id='1063'> +7.4529011e+04 </wgt>
<wgt id='1064'> +7.4608196e+04 </wgt>
<wgt id='1065'> +7.4564718e+04 </wgt>
<wgt id='1066'> +7.4599929e+04 </wgt>
<wgt id='1067'> +7.4600594e+04 </wgt>
<wgt id='1068'> +7.4534429e+04 </wgt>
<wgt id='1069'> +7.4563157e+04 </wgt>
<wgt id='1070'> +7.4485888e+04 </wgt>
<wgt id='1071'> +7.4579837e+04 </wgt>
<wgt id='1072'> +7.4474920e+04 </wgt>
<wgt id='1073'> +7.4476910e+04 </wgt>
<wgt id='1074'> +7.4472956e+04 </wgt>
<wgt id='1075'> +7.4543285e+04 </wgt>
<wgt id='1076'> +7.4474175e+04 </wgt>
<wgt id='1077'> +7.4543729e+04 </wgt>
<wgt id='1078'> +7.4482281e+04 </wgt>
<wgt id='1079'> +7.4552684e+04 </wgt>
<wgt id='1080'> +7.4454697e+04 </wgt>
<wgt id='1081'> +7.4508374e+04 </wgt>
<wgt id='1082'> +7.4560258e+04 </wgt>
<wgt id='1083'> +7.4500597e+04 </wgt>
<wgt id='1084'> +7.4518271e+04 </wgt>
<wgt id='1085'> +7.4491350e+04 </wgt>
<wgt id='1086'> +7.4575252e+04 </wgt>
<wgt id='1087'> +7.4580537e+04 </wgt>
<wgt id='1088'> +7.4534384e+04 </wgt>
<wgt id='1089'> +7.4549033e+04 </wgt>
<wgt id='1090'> +7.4549618e+04 </wgt>
<wgt id='1091'> +7.4483658e+04 </wgt>
<wgt id='1092'> +7.4517590e+04 </wgt>
<wgt id='1093'> +7.4511358e+04 </wgt>
<wgt id='1094'> +7.4559181e+04 </wgt>
<wgt id='1095'> +7.4538910e+04 </wgt>
<wgt id='1096'> +7.4476371e+04 </wgt>
<wgt id='1097'> +7.4497799e+04 </wgt>
<wgt id='1098'> +7.4481758e+04 </wgt>
<wgt id='1099'> +7.4504587e+04 </wgt>
<wgt id='1100'> +7.4567972e+04 </wgt>
<wgt id='1101'> +7.4535056e+04 </wgt>
<wgt id='1102'> +7.4552917e+04 </wgt>
<wgt id='1103'> +7.4519857e+04 </wgt>
<wgt id='1104'> +7.4499340e+04 </wgt>
<wgt id='1105'> +7.4565271e+04 </wgt>
<wgt id='1106'> +7.4513078e+04 </wgt>
<wgt id='1107'> +7.4519366e+04 </wgt>
<wgt id='1108'> +7.4531517e+04 </wgt>
<wgt id='1109'> +7.4543581e+04 </wgt>
<wgt id='1110'> +7.4519531e+04 </wgt>
<wgt id='1111'> +7.3708369e+04 </wgt>
<wgt id='1112'> +7.5095620e+04 </wgt>
<wgt id='1113'> +7.4519531e+04 </wgt>
<wgt id='1114'> +7.4311814e+04 </wgt>
<wgt id='1115'> +7.7222945e+04 </wgt>
<wgt id='1116'> +7.1705111e+04 </wgt>
<wgt id='1117'> +7.3946574e+04 </wgt>
<wgt id='1118'> +7.2688250e+04 </wgt>
<wgt id='1119'> +7.4657022e+04 </wgt>
<wgt id='1120'> +7.7107715e+04 </wgt>
<wgt id='1121'> +7.4058529e+04 </wgt>
<wgt id='1122'> +7.3795187e+04 </wgt>
<wgt id='1123'> +7.1959193e+04 </wgt>
<wgt id='1124'> +7.3907482e+04 </wgt>
<wgt id='1125'> +7.3447929e+04 </wgt>
<wgt id='1126'> +7.4953277e+04 </wgt>
<wgt id='1127'> +7.4776446e+04 </wgt>
<wgt id='1128'> +7.5316870e+04 </wgt>
<wgt id='1129'> +7.3826504e+04 </wgt>
<wgt id='1130'> +7.3983121e+04 </wgt>
<wgt id='1131'> +7.4223757e+04 </wgt>
<wgt id='1132'> +7.6208221e+04 </wgt>
<wgt id='1133'> +7.4546248e+04 </wgt>
<wgt id='1134'> +7.5424377e+04 </wgt>
<wgt id='1135'> +7.6598062e+04 </wgt>
<wgt id='1136'> +7.6833117e+04 </wgt>
<wgt id='1137'> +7.3402650e+04 </wgt>
<wgt id='1138'> +7.5580278e+04 </wgt>
<wgt id='1139'> +7.3917506e+04 </wgt>
<wgt id='1140'> +7.5575427e+04 </wgt>
<wgt id='1141'> +7.5247426e+04 </wgt>
<wgt id='1142'> +7.4411557e+04 </wgt>
<wgt id='1143'> +7.6849638e+04 </wgt>
<wgt id='1144'> +7.2472297e+04 </wgt>
<wgt id='1145'> +7.4763816e+04 </wgt>
<wgt id='1146'> +7.5453600e+04 </wgt>
<wgt id='1147'> +7.3307919e+04 </wgt>
<wgt id='1148'> +7.2982358e+04 </wgt>
<wgt id='1149'> +7.4961270e+04 </wgt>
<wgt id='1150'> +7.3199191e+04 </wgt>
<wgt id='1151'> +7.4540864e+04 </wgt>
<wgt id='1152'> +7.7326575e+04 </wgt>
<wgt id='1153'> +7.5291085e+04 </wgt>
<wgt id='1154'> +7.4705815e+04 </wgt>
<wgt id='1155'> +7.5275322e+04 </wgt>
<wgt id='1156'> +7.4111921e+04 </wgt>
<wgt id='1157'> +7.4955913e+04 </wgt>
<wgt id='1158'> +7.3930284e+04 </wgt>
<wgt id='1159'> +7.4256452e+04 </wgt>
<wgt id='1160'> +7.6374423e+04 </wgt>
<wgt id='1161'> +7.2106189e+04 </wgt>
<wgt id='1162'> +7.7439092e+04 </wgt>
<wgt id='1163'> +7.3094822e+04 </wgt>
<wgt id='1164'> +7.3483966e+04 </wgt>
<wgt id='1165'> +7.5416185e+04 </wgt>
<wgt id='1166'> +7.6426066e+04 </wgt>
<wgt id='1167'> +7.5994407e+04 </wgt>
<wgt id='1168'> +7.3266938e+04 </wgt>
<wgt id='1169'> +7.3724906e+04 </wgt>
<wgt id='1170'> +7.4168913e+04 </wgt>
<wgt id='1171'> +7.5358985e+04 </wgt>
<wgt id='1172'> +7.5910727e+04 </wgt>
<wgt id='1173'> +7.2349150e+04 </wgt>
<wgt id='1174'> +7.5538735e+04 </wgt>
<wgt id='1175'> +7.3797908e+04 </wgt>
<wgt id='1176'> +7.4532438e+04 </wgt>
<wgt id='1177'> +7.2140242e+04 </wgt>
<wgt id='1178'> +7.4898799e+04 </wgt>
<wgt id='1179'> +7.4004151e+04 </wgt>
<wgt id='1180'> +7.4153555e+04 </wgt>
<wgt id='1181'> +7.5893942e+04 </wgt>
<wgt id='1182'> +7.6441838e+04 </wgt>
<wgt id='1183'> +7.5931602e+04 </wgt>
<wgt id='1184'> +7.4753645e+04 </wgt>
<wgt id='1185'> +7.3712067e+04 </wgt>
<wgt id='1186'> +7.2444818e+04 </wgt>
<wgt id='1187'> +7.5024739e+04 </wgt>
<wgt id='1188'> +7.3400437e+04 </wgt>
<wgt id='1189'> +7.4465312e+04 </wgt>
<wgt id='1190'> +7.4444807e+04 </wgt>
<wgt id='1191'> +7.6117390e+04 </wgt>
<wgt id='1192'> +7.3069500e+04 </wgt>
<wgt id='1193'> +7.3131220e+04 </wgt>
<wgt id='1194'> +7.4525783e+04 </wgt>
<wgt id='1195'> +7.3826504e+04 </wgt>
<wgt id='1196'> +7.3085397e+04 </wgt>
<wgt id='1197'> +7.4042971e+04 </wgt>
<wgt id='1198'> +7.5765644e+04 </wgt>
<wgt id='1199'> +7.5946351e+04 </wgt>
<wgt id='1200'> +7.4759216e+04 </wgt>
<wgt id='1201'> +7.4121988e+04 </wgt>
<wgt id='1202'> +7.1097947e+04 </wgt>
<wgt id='1203'> +7.3841526e+04 </wgt>
<wgt id='1204'> +7.5251213e+04 </wgt>
<wgt id='1205'> +7.5245160e+04 </wgt>
<wgt id='1206'> +7.4423201e+04 </wgt>
<wgt id='1207'> +7.5499266e+04 </wgt>
<wgt id='1208'> +7.3044127e+04 </wgt>
<wgt id='1209'> +7.6431932e+04 </wgt>
<wgt id='1210'> +7.1266744e+04 </wgt>
<wgt id='1211'> +7.5097399e+04 </wgt>
<wgt id='1212'> +7.4228222e+04 </wgt>
<wgt id='1213'> +7.4763621e+04 </wgt>
<wgt id='1214'> +7.4464269e+04 </wgt>
<wgt id='1215'> +7.0915780e+04 </wgt>
<wgt id='1216'> +7.1409950e+04 </wgt>
<wgt id='1217'> +7.2244990e+04 </wgt>
<wgt id='1218'> +7.3104632e+04 </wgt>
<wgt id='1219'> +7.4404570e+04 </wgt>
<wgt id='1220'> +7.4790238e+04 </wgt>
<wgt id='1221'> +7.6100047e+04 </wgt>
<wgt id='1222'> +7.6683383e+04 </wgt>
<wgt id='1223'> +7.2872416e+04 </wgt>
<wgt id='1224'> +7.2536606e+04 </wgt>
<wgt id='1225'> +7.3418692e+04 </wgt>
<wgt id='1226'> +7.2509612e+04 </wgt>
<wgt id='1227'> +7.3098579e+04 </wgt>
<wgt id='1228'> +7.2902327e+04 </wgt>
<wgt id='1229'> +7.2412219e+04 </wgt>
<wgt id='1230'> +7.3133334e+04 </wgt>
<wgt id='1231'> +7.3372841e+04 </wgt>
<wgt id='1232'> +7.3147076e+04 </wgt>
<wgt id='1233'> +7.2779233e+04 </wgt>
<wgt id='1234'> +7.2727532e+04 </wgt>
<wgt id='1235'> +7.3035706e+04 </wgt>
<wgt id='1236'> +7.3083583e+04 </wgt>
<wgt id='1237'> +7.2681752e+04 </wgt>
<wgt id='1238'> +7.3097584e+04 </wgt>
<wgt id='1239'> +7.3082763e+04 </wgt>
<wgt id='1240'> +7.2913655e+04 </wgt>
<wgt id='1241'> +7.2993820e+04 </wgt>
<wgt id='1242'> +7.2962509e+04 </wgt>
<wgt id='1243'> +7.2824695e+04 </wgt>
<wgt id='1244'> +7.2883323e+04 </wgt>
<wgt id='1245'> +7.2895611e+04 </wgt>
<wgt id='1246'> +7.2826892e+04 </wgt>
<wgt id='1247'> +7.3036527e+04 </wgt>
<wgt id='1248'> +7.2707146e+04 </wgt>
<wgt id='1249'> +7.2892901e+04 </wgt>
<wgt id='1250'> +7.2841680e+04 </wgt>
<wgt id='1251'> +7.3022958e+04 </wgt>
<wgt id='1252'> +7.3144918e+04 </wgt>
<wgt id='1253'> +7.2202928e+04 </wgt>
<wgt id='1254'> +7.2516435e+04 </wgt>
<wgt id='1255'> +7.3063709e+04 </wgt>
<wgt id='1256'> +7.2967194e+04 </wgt>
<wgt id='1257'> +7.2806450e+04 </wgt>
<wgt id='1258'> +7.3006300e+04 </wgt>
<wgt id='1259'> +7.2976207e+04 </wgt>
<wgt id='1260'> +7.2676399e+04 </wgt>
<wgt id='1261'> +7.2906738e+04 </wgt>
<wgt id='1262'> +7.2910484e+04 </wgt>
<wgt id='1263'> +7.2846194e+04 </wgt>
<wgt id='1264'> +7.3007452e+04 </wgt>
<wgt id='1265'> +7.3006398e+04 </wgt>
<wgt id='1266'> +7.2713014e+04 </wgt>
<wgt id='1267'> +7.2884114e+04 </wgt>
<wgt id='1268'> +7.2917672e+04 </wgt>
<wgt id='1269'> +7.2807332e+04 </wgt>
<wgt id='1270'> +7.2835464e+04 </wgt>
<wgt id='1271'> +7.2973596e+04 </wgt>
<wgt id='1272'> +7.2863270e+04 </wgt>
<wgt id='1273'> +7.2818201e+04 </wgt>
<wgt id='1274'> +7.2913450e+04 </wgt>
<wgt id='1275'> +7.2952449e+04 </wgt>
<wgt id='1276'> +7.2801328e+04 </wgt>
<wgt id='1277'> +7.2882824e+04 </wgt>
<wgt id='1278'> +7.2848212e+04 </wgt>
<wgt id='1279'> +7.2785781e+04 </wgt>
<wgt id='1280'> +7.2910287e+04 </wgt>
<wgt id='1281'> +7.2829274e+04 </wgt>
<wgt id='1282'> +7.2888111e+04 </wgt>
<wgt id='1283'> +7.2856481e+04 </wgt>
<wgt id='1284'> +7.2848296e+04 </wgt>
<wgt id='1285'> +7.2769176e+04 </wgt>
<wgt id='1286'> +7.2899139e+04 </wgt>
<wgt id='1287'> +7.2803276e+04 </wgt>
<wgt id='1288'> +7.2870531e+04 </wgt>
<wgt id='1289'> +7.2880527e+04 </wgt>
<wgt id='1290'> +7.2766419e+04 </wgt>
<wgt id='1291'> +7.2916700e+04 </wgt>
<wgt id='1292'> +7.2842371e+04 </wgt>
<wgt id='1293'> +7.2804236e+04 </wgt>
<wgt id='1294'> +7.2862002e+04 </wgt>
<wgt id='1295'> +7.2841562e+04 </wgt>
<wgt id='1296'> +7.2860009e+04 </wgt>
<wgt id='1297'> +7.2994431e+04 </wgt>
<wgt id='1298'> +7.2868897e+04 </wgt>
<wgt id='1299'> +7.2891575e+04 </wgt>
<wgt id='1300'> +7.2821388e+04 </wgt>
<wgt id='1301'> +7.2887108e+04 </wgt>
<wgt id='1302'> +7.2885338e+04 </wgt>
<wgt id='1303'> +7.2883161e+04 </wgt>
<wgt id='1304'> +7.2984359e+04 </wgt>
<wgt id='1305'> +7.2842514e+04 </wgt>
<wgt id='1306'> +7.2910354e+04 </wgt>
<wgt id='1307'> +7.2813410e+04 </wgt>
<wgt id='1308'> +7.2864875e+04 </wgt>
<wgt id='1309'> +7.2859832e+04 </wgt>
<wgt id='1310'> +7.2908911e+04 </wgt>
<wgt id='1311'> +7.2847453e+04 </wgt>
<wgt id='1312'> +7.2868426e+04 </wgt>
<wgt id='1313'> +7.2893223e+04 </wgt>
<wgt id='1314'> +7.2912756e+04 </wgt>
<wgt id='1315'> +7.2891883e+04 </wgt>
<wgt id='1316'> +7.2874226e+04 </wgt>
<wgt id='1317'> +7.2854298e+04 </wgt>
<wgt id='1318'> +7.2905799e+04 </wgt>
<wgt id='1319'> +7.2815365e+04 </wgt>
<wgt id='1320'> +7.2849280e+04 </wgt>
<wgt id='1321'> +7.2902923e+04 </wgt>
<wgt id='1322'> +7.2861498e+04 </wgt>
<wgt id='1323'> +7.2890503e+04 </wgt>
<wgt id='1324'> +7.2075384e+04 </wgt>
<wgt id='1325'> +7.3619358e+04 </wgt>
<wgt id='1326'> +7.3808943e+04 </wgt>
<wgt id='1327'> +7.1159023e+04 </wgt>
<wgt id='1328'> +7.4234113e+04 </wgt>
<wgt id='1329'> +7.4197840e+04 </wgt>
<wgt id='1330'> +7.4193915e+04 </wgt>
<wgt id='1331'> +7.4385835e+04 </wgt>
<wgt id='1332'> +7.4594820e+04 </wgt>
<wgt id='1333'> +7.4632905e+04 </wgt>
<wgt id='1334'> +7.2339626e+04 </wgt>
<wgt id='1335'> +7.3350814e+04 </wgt>
<wgt id='1336'> +7.4908172e+04 </wgt>
<wgt id='1337'> +7.4279571e+04 </wgt>
<wgt id='1338'> +7.4496066e+04 </wgt>
<wgt id='1339'> +7.4694261e+04 </wgt>
<wgt id='1340'> +7.4298351e+04 </wgt>
<wgt id='1341'> +7.3282398e+04 </wgt>
<wgt id='1342'> +7.4361252e+04 </wgt>
<wgt id='1343'> +7.4223078e+04 </wgt>
<wgt id='1344'> +7.2552060e+04 </wgt>
<wgt id='1345'> +7.6032039e+04 </wgt>
<wgt id='1346'> +7.4056677e+04 </wgt>
<wgt id='1347'> +7.5149566e+04 </wgt>
<wgt id='1348'> +7.3579959e+04 </wgt>
<wgt id='1349'> +7.4131858e+04 </wgt>
<wgt id='1350'> +7.2424129e+04 </wgt>
<wgt id='1351'> +7.3522714e+04 </wgt>
<wgt id='1352'> +7.3774268e+04 </wgt>
<wgt id='1353'> +7.4238998e+04 </wgt>
<wgt id='1354'> +7.5357702e+04 </wgt>
<wgt id='1355'> +7.4706836e+04 </wgt>
<wgt id='1356'> +7.4556867e+04 </wgt>
<wgt id='1357'> +7.3843257e+04 </wgt>
<wgt id='1358'> +7.3899624e+04 </wgt>
<wgt id='1359'> +7.5010139e+04 </wgt>
<wgt id='1360'> +7.3574899e+04 </wgt>
<wgt id='1361'> +7.5758357e+04 </wgt>
<wgt id='1362'> +7.4728062e+04 </wgt>
<wgt id='1363'> +7.3831911e+04 </wgt>
<wgt id='1364'> +7.4381252e+04 </wgt>
<wgt id='1365'> +7.3343791e+04 </wgt>
<wgt id='1366'> +7.4203273e+04 </wgt>
<wgt id='1367'> +7.4453997e+04 </wgt>
<wgt id='1368'> +7.5168708e+04 </wgt>
<wgt id='1369'> +7.2869726e+04 </wgt>
<wgt id='1370'> +7.4337316e+04 </wgt>
<wgt id='1371'> +7.3895525e+04 </wgt>
<wgt id='1372'> +7.4567864e+04 </wgt>
<wgt id='1373'> +7.4166016e+04 </wgt>
<wgt id='1374'> +7.5164725e+04 </wgt>
<wgt id='1375'> +7.4996811e+04 </wgt>
<wgt id='1376'> +7.4359666e+04 </wgt>
<wgt id='1377'> +7.4221271e+04 </wgt>
<wgt id='1378'> +7.3219590e+04 </wgt>
<wgt id='1379'> +7.5534990e+04 </wgt>
<wgt id='1380'> +7.2931749e+04 </wgt>
<wgt id='1381'> +7.3502509e+04 </wgt>
<wgt id='1382'> +7.3422790e+04 </wgt>
<wgt id='1383'> +7.4645720e+04 </wgt>
<wgt id='1384'> +7.4031252e+04 </wgt>
<wgt id='1385'> +7.2630653e+04 </wgt>
<wgt id='1386'> +7.4600914e+04 </wgt>
<wgt id='1387'> +7.3872924e+04 </wgt>
<wgt id='1388'> +7.5176921e+04 </wgt>
<wgt id='1389'> +7.3726254e+04 </wgt>
<wgt id='1390'> +7.2320174e+04 </wgt>
<wgt id='1391'> +7.4404843e+04 </wgt>
<wgt id='1392'> +7.4219805e+04 </wgt>
<wgt id='1393'> +7.3124813e+04 </wgt>
<wgt id='1394'> +7.3343791e+04 </wgt>
<wgt id='1395'> +7.4311762e+04 </wgt>
<wgt id='1396'> +7.2444068e+04 </wgt>
<wgt id='1397'> +7.4679693e+04 </wgt>
<wgt id='1398'> +7.5485382e+04 </wgt>
<wgt id='1399'> +7.5011045e+04 </wgt>
<wgt id='1400'> +7.5873630e+04 </wgt>
<wgt id='1401'> +7.4702491e+04 </wgt>
<wgt id='1402'> +7.4521661e+04 </wgt>
<wgt id='1403'> +7.4031611e+04 </wgt>
<wgt id='1404'> +7.5489855e+04 </wgt>
<wgt id='1405'> +7.2528997e+04 </wgt>
<wgt id='1406'> +7.3659166e+04 </wgt>
<wgt id='1407'> +7.4048174e+04 </wgt>
<wgt id='1408'> +7.5750871e+04 </wgt>
<wgt id='1409'> +7.3816076e+04 </wgt>
<wgt id='1410'> +7.4195654e+04 </wgt>
<wgt id='1411'> +7.4765342e+04 </wgt>
<wgt id='1412'> +7.5540010e+04 </wgt>
<wgt id='1413'> +7.4745289e+04 </wgt>
<wgt id='1414'> +7.4669894e+04 </wgt>
<wgt id='1415'> +7.3231174e+04 </wgt>
<wgt id='1416'> +7.5129695e+04 </wgt>
<wgt id='1417'> +7.3537348e+04 </wgt>
<wgt id='1418'> +7.5983102e+04 </wgt>
<wgt id='1419'> +7.5299484e+04 </wgt>
<wgt id='1420'> +7.3712048e+04 </wgt>
<wgt id='1421'> +7.4194376e+04 </wgt>
<wgt id='1422'> +7.3796722e+04 </wgt>
<wgt id='1423'> +7.4690492e+04 </wgt>
<wgt id='1424'> +7.4074768e+04 </wgt>
<wgt id='1425'> +7.2848745e+04 </wgt>
<wgt id='1426'> +7.4675050e+04 </wgt>
<wgt id='1427'> +7.4947213e+04 </wgt>
<wgt id='1428'> +7.5140590e+04 </wgt>
<wgt id='1429'> +7.4078390e+04 </wgt>
<wgt id='1430'> +7.4341112e+04 </wgt>
<wgt id='1431'> +7.4177297e+04 </wgt>
<wgt id='1432'> +7.4766980e+04 </wgt>
<wgt id='1433'> +7.4187768e+04 </wgt>
<wgt id='1434'> +7.3985286e+04 </wgt>
<wgt id='1435'> +7.4030395e+04 </wgt>
<wgt id='1436'> +7.4107931e+04 </wgt>
<wgt id='1437'> +7.4304744e+04 </wgt>
<wgt id='1438'> +7.4309659e+04 </wgt>
<wgt id='1439'> +7.4042297e+04 </wgt>
<wgt id='1440'> +7.4190181e+04 </wgt>
<wgt id='1441'> +7.4133061e+04 </wgt>
<wgt id='1442'> +7.4308393e+04 </wgt>
<wgt id='1443'> +7.4184666e+04 </wgt>
<wgt id='1444'> +7.4032170e+04 </wgt>
<wgt id='1445'> +7.4125342e+04 </wgt>
<wgt id='1446'> +7.4173752e+04 </wgt>
<wgt id='1447'> +7.3945184e+04 </wgt>
<wgt id='1448'> +7.4325722e+04 </wgt>
<wgt id='1449'> +7.4160297e+04 </wgt>
<wgt id='1450'> +7.3875372e+04 </wgt>
<wgt id='1451'> +7.4152698e+04 </wgt>
<wgt id='1452'> +7.4150128e+04 </wgt>
<wgt id='1453'> +7.4190965e+04 </wgt>
<wgt id='1454'> +7.4163518e+04 </wgt>
<wgt id='1455'> +7.4094377e+04 </wgt>
<wgt id='1456'> +7.4122910e+04 </wgt>
<wgt id='1457'> +7.4283945e+04 </wgt>
<wgt id='1458'> +7.4202037e+04 </wgt>
<wgt id='1459'> +7.4191223e+04 </wgt>
<wgt id='1460'> +7.4090823e+04 </wgt>
<wgt id='1461'> +7.4138741e+04 </wgt>
<wgt id='1462'> +7.4160619e+04 </wgt>
<wgt id='1463'> +7.4134916e+04 </wgt>
<wgt id='1464'> +7.4137721e+04 </wgt>
<wgt id='1465'> +7.4167415e+04 </wgt>
<wgt id='1466'> +7.4173381e+04 </wgt>
<wgt id='1467'> +7.4116680e+04 </wgt>
<wgt id='1468'> +7.4172523e+04 </wgt>
<wgt id='1469'> +7.4151888e+04 </wgt>
<wgt id='1470'> +7.4219809e+04 </wgt>
<wgt id='1471'> +7.4173937e+04 </wgt>
<wgt id='1472'> +7.4197757e+04 </wgt>
<wgt id='1473'> +7.4174963e+04 </wgt>
<wgt id='1474'> +7.4140105e+04 </wgt>
<wgt id='1475'> +7.4164871e+04 </wgt>
<wgt id='1476'> +7.4214390e+04 </wgt>
<wgt id='1477'> +7.4132275e+04 </wgt>
<wgt id='1478'> +7.4175178e+04 </wgt>
<wgt id='1479'> +7.4101799e+04 </wgt>
<wgt id='1480'> +7.4223701e+04 </wgt>
<wgt id='1481'> +7.4150363e+04 </wgt>
<wgt id='1482'> +7.4078390e+04 </wgt>
<wgt id='1483'> +7.4341112e+04 </wgt>
<wgt id='1484'> +7.7474861e+04 </wgt>
<wgt id='1485'> +7.7463317e+04 </wgt>
<wgt id='1486'> +7.7964977e+04 </wgt>
<wgt id='1487'> +7.5910780e+04 </wgt>
<wgt id='1488'> +7.6793718e+04 </wgt>
<wgt id='1489'> +7.7684079e+04 </wgt>
<wgt id='1490'> +7.5366172e+04 </wgt>
<wgt id='1491'> +7.7726556e+04 </wgt>
<wgt id='1492'> +7.5375637e+04 </wgt>
<wgt id='1493'> +7.7583199e+04 </wgt>
<wgt id='1494'> +7.7083865e+04 </wgt>
<wgt id='1495'> +7.5918074e+04 </wgt>
<wgt id='1496'> +7.6712783e+04 </wgt>
<wgt id='1497'> +7.7219058e+04 </wgt>
<wgt id='1498'> +7.8270285e+04 </wgt>
<wgt id='1499'> +7.7924880e+04 </wgt>
<wgt id='1500'> +7.6796244e+04 </wgt>
<wgt id='1501'> +7.6737861e+04 </wgt>
<wgt id='1502'> +7.8164763e+04 </wgt>
<wgt id='1503'> +7.6789066e+04 </wgt>
<wgt id='1504'> +7.7605895e+04 </wgt>
<wgt id='1505'> +7.7599186e+04 </wgt>
<wgt id='1506'> +7.7315024e+04 </wgt>
<wgt id='1507'> +7.6666441e+04 </wgt>
<wgt id='1508'> +7.5305805e+04 </wgt>
<wgt id='1509'> +7.7102153e+04 </wgt>
<wgt id='1510'> +7.7891100e+04 </wgt>
<wgt id='1511'> +7.6453557e+04 </wgt>
<wgt id='1512'> +7.6506253e+04 </wgt>
<wgt id='1513'> +7.7077764e+04 </wgt>
<wgt id='1514'> +7.7537664e+04 </wgt>
<wgt id='1515'> +7.6873389e+04 </wgt>
<wgt id='1516'> +7.5912592e+04 </wgt>
<wgt id='1517'> +7.7836391e+04 </wgt>
<wgt id='1518'> +7.7478824e+04 </wgt>
<wgt id='1519'> +7.7773426e+04 </wgt>
<wgt id='1520'> +7.7505517e+04 </wgt>
<wgt id='1521'> +7.5693215e+04 </wgt>
<wgt id='1522'> +7.8305192e+04 </wgt>
<wgt id='1523'> +7.8178405e+04 </wgt>
<wgt id='1524'> +7.7335606e+04 </wgt>
<wgt id='1525'> +7.7710039e+04 </wgt>
<wgt id='1526'> +7.7550984e+04 </wgt>
<wgt id='1527'> +7.7812300e+04 </wgt>
<wgt id='1528'> +7.8227850e+04 </wgt>
<wgt id='1529'> +7.8674939e+04 </wgt>
<wgt id='1530'> +7.7359278e+04 </wgt>
<wgt id='1531'> +7.6971175e+04 </wgt>
<wgt id='1532'> +7.5817988e+04 </wgt>
<wgt id='1533'> +7.8189304e+04 </wgt>
<wgt id='1534'> +7.8222156e+04 </wgt>
<wgt id='1535'> +7.6951693e+04 </wgt>
<wgt id='1536'> +7.7980919e+04 </wgt>
<wgt id='1537'> +7.7314258e+04 </wgt>
<wgt id='1538'> +7.9464550e+04 </wgt>
<wgt id='1539'> +7.7829104e+04 </wgt>
<wgt id='1540'> +7.8362171e+04 </wgt>
<wgt id='1541'> +7.8037033e+04 </wgt>
<wgt id='1542'> +7.8570620e+04 </wgt>
<wgt id='1543'> +7.7895770e+04 </wgt>
<wgt id='1544'> +7.8755082e+04 </wgt>
<wgt id='1545'> +7.7750093e+04 </wgt>
<wgt id='1546'> +7.7263839e+04 </wgt>
<wgt id='1547'> +7.8412804e+04 </wgt>
<wgt id='1548'> +7.6774724e+04 </wgt>
<wgt id='1549'> +7.8919826e+04 </wgt>
<wgt id='1550'> +7.8978754e+04 </wgt>
<wgt id='1551'> +7.9344410e+04 </wgt>
<wgt id='1552'> +7.7219942e+04 </wgt>
<wgt id='1553'> +7.9430017e+04 </wgt>
<wgt id='1554'> +7.5679153e+04 </wgt>
<wgt id='1555'> +7.7846756e+04 </wgt>
<wgt id='1556'> +7.7729087e+04 </wgt>
<wgt id='1557'> +7.6778809e+04 </wgt>
<wgt id='1558'> +7.8287567e+04 </wgt>
<wgt id='1559'> +7.8301929e+04 </wgt>
<wgt id='1560'> +7.7161979e+04 </wgt>
<wgt id='1561'> +7.7891727e+04 </wgt>
<wgt id='1562'> +7.8115387e+04 </wgt>
<wgt id='1563'> +7.7309911e+04 </wgt>
<wgt id='1564'> +7.6856285e+04 </wgt>
<wgt id='1565'> +7.6289698e+04 </wgt>
<wgt id='1566'> +7.7804004e+04 </wgt>
<wgt id='1567'> +7.9340276e+04 </wgt>
<wgt id='1568'> +7.7584201e+04 </wgt>
<wgt id='1569'> +7.8424954e+04 </wgt>
<wgt id='1570'> +7.8802248e+04 </wgt>
<wgt id='1571'> +7.8682204e+04 </wgt>
<wgt id='1572'> +7.6509349e+04 </wgt>
<wgt id='1573'> +7.7892816e+04 </wgt>
<wgt id='1574'> +7.6617807e+04 </wgt>
<wgt id='1575'> +7.5849711e+04 </wgt>
<wgt id='1576'> +7.8330678e+04 </wgt>
<wgt id='1577'> +7.5793385e+04 </wgt>
<wgt id='1578'> +7.7470629e+04 </wgt>
<wgt id='1579'> +7.7195323e+04 </wgt>
<wgt id='1580'> +7.9030807e+04 </wgt>
<wgt id='1581'> +7.8293678e+04 </wgt>
<wgt id='1582'> +7.7356084e+04 </wgt>
<wgt id='1583'> +7.6716400e+04 </wgt>
<wgt id='1584'> +7.6392485e+04 </wgt>
<wgt id='1585'> +7.4302005e+04 </wgt>
<wgt id='1586'> +6.5869882e+04 </wgt>
<wgt id='1587'> +7.3673069e+04 </wgt>
<wgt id='1588'> +7.4078390e+04 </wgt>
<wgt id='1589'> +7.4069587e+04 </wgt>
<wgt id='1590'> +7.4055808e+04 </wgt>
<wgt id='1591'> +7.4341112e+04 </wgt>
<wgt id='1592'> +7.4341358e+04 </wgt>
<wgt id='1593'> +7.6184352e+04 </wgt>
<wgt id='1594'> +7.6770128e+04 </wgt>
<wgt id='1595'> +7.6490897e+04 </wgt>
<wgt id='1596'> +7.5833245e+04 </wgt>
<wgt id='1597'> +7.6588243e+04 </wgt>
<wgt id='1598'> +7.5435481e+04 </wgt>
<wgt id='1599'> +7.7001979e+04 </wgt>
<wgt id='1600'> +7.4901762e+04 </wgt>
<wgt id='1601'> +7.7367694e+04 </wgt>
<wgt id='1602'> +7.5904235e+04 </wgt>
<wgt id='1603'> +7.6614084e+04 </wgt>
<wgt id='1604'> +7.6908097e+04 </wgt>
<wgt id='1605'> +7.5757233e+04 </wgt>
<wgt id='1606'> +7.5382222e+04 </wgt>
<wgt id='1607'> +7.6659237e+04 </wgt>
<wgt id='1608'> +7.4925186e+04 </wgt>
<wgt id='1609'> +7.6956421e+04 </wgt>
<wgt id='1610'> +7.6038947e+04 </wgt>
<wgt id='1611'> +7.6113508e+04 </wgt>
<wgt id='1612'> +7.6638772e+04 </wgt>
<wgt id='1613'> +7.4976891e+04 </wgt>
<wgt id='1614'> +7.5744048e+04 </wgt>
<wgt id='1615'> +7.6949250e+04 </wgt>
<wgt id='1616'> +7.5436577e+04 </wgt>
<wgt id='1617'> +7.6588414e+04 </wgt>
<wgt id='1618'> +7.6363286e+04 </wgt>
<wgt id='1619'> +7.5750010e+04 </wgt>
<wgt id='1620'> +7.6756095e+04 </wgt>
<wgt id='1621'> +7.5765933e+04 </wgt>
<wgt id='1622'> +7.6778782e+04 </wgt>
<wgt id='1623'> +7.5509889e+04 </wgt>
<wgt id='1624'> +7.6508808e+04 </wgt>
<wgt id='1625'> +7.4825631e+04 </wgt>
<wgt id='1626'> +7.5548857e+04 </wgt>
<wgt id='1627'> +7.6633300e+04 </wgt>
<wgt id='1628'> +7.6733397e+04 </wgt>
<wgt id='1629'> +7.6247484e+04 </wgt>
<wgt id='1630'> +7.5895354e+04 </wgt>
<wgt id='1631'> +7.6045619e+04 </wgt>
<wgt id='1632'> +7.5610095e+04 </wgt>
<wgt id='1633'> +7.6703960e+04 </wgt>
<wgt id='1634'> +7.7110833e+04 </wgt>
<wgt id='1635'> +7.5398031e+04 </wgt>
<wgt id='1636'> +7.6177212e+04 </wgt>
<wgt id='1637'> +7.6860783e+04 </wgt>
<wgt id='1638'> +7.5914499e+04 </wgt>
<wgt id='1639'> +7.6247537e+04 </wgt>
<wgt id='1640'> +7.7436873e+04 </wgt>
<wgt id='1641'> +7.5291893e+04 </wgt>
<wgt id='1642'> +7.5517271e+04 </wgt>
<wgt id='1643'> +7.6970200e+04 </wgt>
<wgt id='1644'> +7.6988083e+04 </wgt>
<wgt id='1645'> +7.5094948e+04 </wgt>
<wgt id='1646'> +7.6140353e+04 </wgt>
<wgt id='1647'> +7.6854462e+04 </wgt>
<wgt id='1648'> +7.6869174e+04 </wgt>
<wgt id='1649'> +7.6583996e+04 </wgt>
<wgt id='1650'> +7.7643286e+04 </wgt>
<wgt id='1651'> +7.4585256e+04 </wgt>
<wgt id='1652'> +7.5495929e+04 </wgt>
<wgt id='1653'> +7.5836568e+04 </wgt>
<wgt id='1654'> +7.6543113e+04 </wgt>
<wgt id='1655'> +7.6914450e+04 </wgt>
<wgt id='1656'> +7.7155663e+04 </wgt>
<wgt id='1657'> +7.7586428e+04 </wgt>
<wgt id='1658'> +7.7396544e+04 </wgt>
<wgt id='1659'> +7.7097990e+04 </wgt>
<wgt id='1660'> +7.7395531e+04 </wgt>
<wgt id='1661'> +7.7757766e+04 </wgt>
<wgt id='1662'> +7.6425773e+04 </wgt>
<wgt id='1663'> +7.6891421e+04 </wgt>
<wgt id='1664'> +7.6846187e+04 </wgt>
<wgt id='1665'> +7.6401356e+04 </wgt>
<wgt id='1666'> +7.7292497e+04 </wgt>
<wgt id='1667'> +7.6598798e+04 </wgt>
<wgt id='1668'> +7.7596838e+04 </wgt>
<wgt id='1669'> +7.7465212e+04 </wgt>
<wgt id='1670'> +7.6579260e+04 </wgt>
<wgt id='1671'> +7.7144720e+04 </wgt>
<wgt id='1672'> +7.7455439e+04 </wgt>
<wgt id='1673'> +7.8320174e+04 </wgt>
<wgt id='1674'> +7.6451055e+04 </wgt>
<wgt id='1675'> +7.7998147e+04 </wgt>
<wgt id='1676'> +7.6633072e+04 </wgt>
<wgt id='1677'> +7.6763646e+04 </wgt>
<wgt id='1678'> +7.7648047e+04 </wgt>
<wgt id='1679'> +7.7266667e+04 </wgt>
<wgt id='1680'> +7.7827549e+04 </wgt>
<wgt id='1681'> +7.7290334e+04 </wgt>
<wgt id='1682'> +7.6641756e+04 </wgt>
<wgt id='1683'> +7.6969167e+04 </wgt>
<wgt id='1684'> +7.7370486e+04 </wgt>
<wgt id='1685'> +7.8309202e+04 </wgt>
<wgt id='1686'> +7.6018496e+04 </wgt>
<wgt id='1687'> +7.7980616e+04 </wgt>
<wgt id='1688'> +7.5989314e+04 </wgt>
<wgt id='1689'> +7.6582023e+04 </wgt>
<wgt id='1690'> +7.8175510e+04 </wgt>
<wgt id='1691'> +7.7424393e+04 </wgt>
<wgt id='1692'> +7.7162160e+04 </wgt>
<wgt id='1693'> +7.7744527e+04 </wgt>
<wgt id='1694'> +7.7146432e+04 </wgt>
<wgt id='1695'> +7.6930065e+04 </wgt>
<wgt id='1696'> +7.7782878e+04 </wgt>
<wgt id='1697'> +7.7613581e+04 </wgt>
<wgt id='1698'> +7.7029798e+04 </wgt>
<wgt id='1699'> +7.6629190e+04 </wgt>
<wgt id='1700'> +7.7773710e+04 </wgt>
<wgt id='1701'> +7.6765214e+04 </wgt>
<wgt id='1702'> +7.7783654e+04 </wgt>
<wgt id='1703'> +7.7274627e+04 </wgt>
<wgt id='1704'> +7.7541383e+04 </wgt>
<wgt id='1705'> +7.7052565e+04 </wgt>
<wgt id='1706'> +7.7444677e+04 </wgt>
<wgt id='1707'> +7.5776993e+04 </wgt>
<wgt id='1708'> +7.8144828e+04 </wgt>
<wgt id='1709'> +7.6808513e+04 </wgt>
<wgt id='1710'> +7.7785663e+04 </wgt>
<wgt id='1711'> +7.7006057e+04 </wgt>
<wgt id='1712'> +7.7408825e+04 </wgt>
<wgt id='1713'> +7.8420074e+04 </wgt>
<wgt id='1714'> +7.5627178e+04 </wgt>
<wgt id='1715'> +7.5268618e+04 </wgt>
<wgt id='1716'> +7.7111420e+04 </wgt>
<wgt id='1717'> +7.3439144e+04 </wgt>
<wgt id='1718'> +7.3613309e+04 </wgt>
<wgt id='1719'> +7.3215757e+04 </wgt>
<wgt id='1720'> +7.3479824e+04 </wgt>
<wgt id='1721'> +7.3401983e+04 </wgt>
<wgt id='1722'> +7.3420870e+04 </wgt>
<wgt id='1723'> +7.3469036e+04 </wgt>
<wgt id='1724'> +7.3614206e+04 </wgt>
<wgt id='1725'> +7.3296691e+04 </wgt>
<wgt id='1726'> +7.3290428e+04 </wgt>
<wgt id='1727'> +7.3592558e+04 </wgt>
<wgt id='1728'> +7.3079166e+04 </wgt>
<wgt id='1729'> +7.3788850e+04 </wgt>
<wgt id='1730'> +7.3335557e+04 </wgt>
<wgt id='1731'> +7.3511864e+04 </wgt>
<wgt id='1732'> +7.3936184e+04 </wgt>
<wgt id='1733'> +7.3936184e+04 </wgt>
<wgt id='1734'> +7.3245743e+04 </wgt>
<wgt id='1735'> +7.3565644e+04 </wgt>
<wgt id='1736'> +7.3117323e+04 </wgt>
<wgt id='1737'> +7.3879247e+04 </wgt>
<wgt id='1738'> +7.3702809e+04 </wgt>
<wgt id='1739'> +7.2950877e+04 </wgt>
<wgt id='1740'> +7.3329431e+04 </wgt>
<wgt id='1741'> +7.3699811e+04 </wgt>
<wgt id='1742'> +7.3526679e+04 </wgt>
<wgt id='1743'> +7.3330331e+04 </wgt>
<wgt id='1744'> +7.3340224e+04 </wgt>
<wgt id='1745'> +7.3706404e+04 </wgt>
<wgt id='1746'> +7.2929879e+04 </wgt>
<wgt id='1747'> +7.3700484e+04 </wgt>
<wgt id='1748'> +7.3597864e+04 </wgt>
<wgt id='1749'> +7.2850433e+04 </wgt>
<wgt id='1750'> +7.3355525e+04 </wgt>
<wgt id='1751'> +7.3527908e+04 </wgt>
<wgt id='1752'> +7.3420094e+04 </wgt>
<wgt id='1753'> +7.3462647e+04 </wgt>
<wgt id='1754'> +7.3374407e+04 </wgt>
<wgt id='1755'> +7.3464103e+04 </wgt>
<wgt id='1756'> +7.3008056e+04 </wgt>
<wgt id='1757'> +7.4514989e+04 </wgt>
<wgt id='1758'> +7.3684821e+04 </wgt>
<wgt id='1759'> +7.2946687e+04 </wgt>
<wgt id='1760'> +7.3819212e+04 </wgt>
<wgt id='1761'> +7.3123595e+04 </wgt>
<wgt id='1762'> +7.3418983e+04 </wgt>
<wgt id='1763'> +7.3580989e+04 </wgt>
<wgt id='1764'> +7.3338193e+04 </wgt>
<wgt id='1765'> +7.3866798e+04 </wgt>
<wgt id='1766'> +7.3416061e+04 </wgt>
<wgt id='1767'> +7.3559083e+04 </wgt>
<wgt id='1768'> +7.3532277e+04 </wgt>
<wgt id='1769'> +7.3391681e+04 </wgt>
<wgt id='1770'> +7.3182294e+04 </wgt>
<wgt id='1771'> +7.3858694e+04 </wgt>
<wgt id='1772'> +7.3539076e+04 </wgt>
<wgt id='1773'> +7.3178647e+04 </wgt>
<wgt id='1774'> +7.3246233e+04 </wgt>
<wgt id='1775'> +7.3548742e+04 </wgt>
<wgt id='1776'> +7.3673812e+04 </wgt>
<wgt id='1777'> +7.3336852e+04 </wgt>
<wgt id='1778'> +7.3563725e+04 </wgt>
<wgt id='1779'> +7.3528002e+04 </wgt>
<wgt id='1780'> +7.3674664e+04 </wgt>
<wgt id='1781'> +7.3649141e+04 </wgt>
<wgt id='1782'> +7.3439144e+04 </wgt>
<wgt id='1783'> +7.3438690e+04 </wgt>
<wgt id='1784'> +7.4405296e+04 </wgt>
<wgt id='1785'> +7.4233022e+04 </wgt>
<wgt id='1786'> +7.3299280e+04 </wgt>
<wgt id='1787'> +7.4389829e+04 </wgt>
<wgt id='1788'> +7.4583681e+04 </wgt>
<wgt id='1789'> +7.4462644e+04 </wgt>
<wgt id='1790'> +7.4039073e+04 </wgt>
<wgt id='1791'> +7.4339772e+04 </wgt>
<wgt id='1792'> +7.4086270e+04 </wgt>
<wgt id='1793'> +7.4539163e+04 </wgt>
<wgt id='1794'> +7.4801042e+04 </wgt>
<wgt id='1795'> +7.3564087e+04 </wgt>
<wgt id='1796'> +7.4405591e+04 </wgt>
<wgt id='1797'> +7.4504411e+04 </wgt>
<wgt id='1798'> +7.4278397e+04 </wgt>
<wgt id='1799'> +7.4981017e+04 </wgt>
<wgt id='1800'> +7.4737168e+04 </wgt>
<wgt id='1801'> +7.4871834e+04 </wgt>
<wgt id='1802'> +7.4590992e+04 </wgt>
<wgt id='1803'> +7.4593972e+04 </wgt>
<wgt id='1804'> +7.3654195e+04 </wgt>
<wgt id='1805'> +7.4415268e+04 </wgt>
<wgt id='1806'> +7.4224838e+04 </wgt>
<wgt id='1807'> +7.4438594e+04 </wgt>
<wgt id='1808'> +7.4422782e+04 </wgt>
<wgt id='1809'> +7.3713209e+04 </wgt>
<wgt id='1810'> +7.4327678e+04 </wgt>
<wgt id='1811'> +7.4251992e+04 </wgt>
<wgt id='1812'> +7.4448894e+04 </wgt>
<wgt id='1813'> +7.4369818e+04 </wgt>
<wgt id='1814'> +7.4290446e+04 </wgt>
<wgt id='1815'> +7.4347261e+04 </wgt>
<wgt id='1816'> +7.4384921e+04 </wgt>
<wgt id='1817'> +7.4040171e+04 </wgt>
<wgt id='1818'> +7.4402871e+04 </wgt>
<wgt id='1819'> +7.4199298e+04 </wgt>
<wgt id='1820'> +7.4387508e+04 </wgt>
<wgt id='1821'> +7.4275544e+04 </wgt>
<wgt id='1822'> +7.4190591e+04 </wgt>
<wgt id='1823'> +7.4353217e+04 </wgt>
<wgt id='1824'> +7.4470440e+04 </wgt>
<wgt id='1825'> +7.4055113e+04 </wgt>
<wgt id='1826'> +7.4947911e+04 </wgt>
<wgt id='1827'> +8.3020771e+04 </wgt>
<wgt id='1828'> +8.3160977e+04 </wgt>
<wgt id='1829'> +8.2917576e+04 </wgt>
<wgt id='1830'> +8.3198054e+04 </wgt>
<wgt id='1831'> +8.2879209e+04 </wgt>
<wgt id='1832'> +8.2947378e+04 </wgt>
<wgt id='1833'> +8.3129697e+04 </wgt>
<wgt id='1834'> +8.2648541e+04 </wgt>
<wgt id='1835'> +8.3411616e+04 </wgt>
<wgt id='1836'> +8.3369485e+04 </wgt>
<wgt id='1837'> +8.2688825e+04 </wgt>
<wgt id='1838'> +8.3265213e+04 </wgt>
<wgt id='1839'> +8.2808694e+04 </wgt>
<wgt id='1840'> +8.2727490e+04 </wgt>
<wgt id='1841'> +8.3363491e+04 </wgt>
<wgt id='1842'> +8.3115784e+04 </wgt>
<wgt id='1843'> +8.3399930e+04 </wgt>
<wgt id='1844'> +8.3228241e+04 </wgt>
<wgt id='1845'> +8.2829298e+04 </wgt>
<wgt id='1846'> +8.3079143e+04 </wgt>
<wgt id='1847'> +8.2984402e+04 </wgt>
<wgt id='1848'> +8.2424273e+04 </wgt>
<wgt id='1849'> +8.3574172e+04 </wgt>
<wgt id='1850'> +8.3276203e+04 </wgt>
<wgt id='1851'> +8.2772730e+04 </wgt>
<wgt id='1852'> +8.2777434e+04 </wgt>
<wgt id='1853'> +8.3059445e+04 </wgt>
<wgt id='1854'> +8.2757519e+04 </wgt>
<wgt id='1855'> +8.3138837e+04 </wgt>
<wgt id='1856'> +7.3144660e+04 </wgt>
<wgt id='1857'> +7.3133079e+04 </wgt>
<wgt id='1858'> +7.3147049e+04 </wgt>
<wgt id='1859'> +7.3121088e+04 </wgt>
<wgt id='1860'> +7.3145296e+04 </wgt>
<wgt id='1861'> +7.3155771e+04 </wgt>
<wgt id='1862'> +7.2924658e+04 </wgt>
<wgt id='1863'> +7.3068415e+04 </wgt>
<wgt id='1864'> +7.2978703e+04 </wgt>
<wgt id='1865'> +7.2970919e+04 </wgt>
<wgt id='1866'> +7.3421868e+04 </wgt>
<wgt id='1867'> +7.3060019e+04 </wgt>
<wgt id='1868'> +7.3080377e+04 </wgt>
<wgt id='1869'> +7.3195511e+04 </wgt>
<wgt id='1870'> +7.3072025e+04 </wgt>
<wgt id='1871'> +7.3160815e+04 </wgt>
<wgt id='1872'> +7.3145670e+04 </wgt>
<wgt id='1873'> +7.3110358e+04 </wgt>
<wgt id='1874'> +7.3219325e+04 </wgt>
<wgt id='1875'> +7.3238034e+04 </wgt>
<wgt id='1876'> +7.2870617e+04 </wgt>
<wgt id='1877'> +7.3010554e+04 </wgt>
<wgt id='1878'> +7.3024965e+04 </wgt>
<wgt id='1879'> +7.3384441e+04 </wgt>
<wgt id='1880'> +7.3343614e+04 </wgt>
<wgt id='1881'> +7.3322753e+04 </wgt>
<wgt id='1882'> +7.3129678e+04 </wgt>
<wgt id='1883'> +7.3187063e+04 </wgt>
<wgt id='1884'> +7.2970118e+04 </wgt>
<wgt id='1885'> +7.2525726e+04 </wgt>
<wgt id='1886'> +6.7267880e+04 </wgt>
<wgt id='1887'> +6.9918813e+04 </wgt>
<wgt id='1888'> +6.5415530e+04 </wgt>
<wgt id='1889'> +7.4201337e+04 </wgt>
</rwgt>
</event>
<event npLO=" -1 " npNLO=" 0 ">
 5      1 +7.4519530e+04 3.92393830e+01 7.55820760e-03 1.11601370e-01
       -2 -1    0    0    0  501 +0.0000000000e+00 +0.0000000000e+00 +1.4736205269e+01 1.4736205269e+01 0.0000000000e+00 0.0000e+00 1.0000e+00
        1 -1    0    0  501    0 +0.0000000000e+00 +0.0000000000e+00 -1.0603961123e+02 1.0603961123e+02 0.0000000000e+00 0.0000e+00 -1.0000e+00
      -24  2    1    2    0    0 +0.0000000000e+00 +0.0000000000e+00 -9.1303405959e+01 1.2077581650e+02 7.9060014615e+01 0.0000e+00 0.0000e+00
       13  1    3    3    0    0 -3.7838617376e+01 -1.0390773791e+01 -3.8342532066e+01 5.4862363330e+01 0.0000000000e+00 0.0000e+00 -1.0000e+00
      -14  1    3    3    0    0 +3.7838617376e+01 +1.0390773791e+01 -5.2960873894e+01 6.5913453168e+01 0.0000000000e+00 0.0000e+00 1.0000e+00
#aMCatNLO 1  0  0  1  1 0.12693056E+03 0.00000000E+00 -9  5  0 0.00000000E+00 0.00000000E+00 0.00000000E+00 0.00000000E+00 0.00000000E+00
<rwgt>
<wgt id='1001'> +7.4519530e+04 </wgt>
<wgt id='1002'> +7.4509863e+04 </wgt>
<wgt id='1003'> +7.4531586e+04 </wgt>
<wgt id='1004'> +6.5741205e+04 </wgt>
<wgt id='1005'> +6.7422015e+04 </wgt>
<wgt id='1006'> +6.3645613e+04 </wgt>
<wgt id='1007'> +8.1390213e+04 </wgt>
<wgt id='1008'> +7.9803954e+04 </wgt>
<wgt id='1009'> +8.3367921e+04 </wgt>
<wgt id='1010'> +7.4519530e+04 </wgt>
<wgt id='1011'> +7.4556082e+04 </wgt>
<wgt id='1012'> +7.4328043e+04 </wgt>
<wgt id='1013'> +7.4189729e+04 </wgt>
<wgt id='1014'> +7.4815294e+04 </wgt>
<wgt id='1015'> +7.4435854e+04 </wgt>
<wgt id='1016'> +7.4457317e+04 </wgt>
<wgt id='1017'> +7.4666090e+04 </wgt>
<wgt id='1018'> +7.4250989e+04 </wgt>
<wgt id='1019'> +7.4933043e+04 </wgt>
<wgt id='1020'> +7.4181689e+04 </wgt>
<wgt id='1021'> +7.4489607e+04 </wgt>
<wgt id='1022'> +7.4580516e+04 </wgt>
<wgt id='1023'> +7.4687925e+04 </wgt>
<wgt id='1024'> +7.4675681e+04 </wgt>
<wgt id='1025'> +7.5217004e+04 </wgt>
<wgt id='1026'> +7.4188257e+04 </wgt>
<wgt id='1027'> +7.4474127e+04 </wgt>
<wgt id='1028'> +7.3934121e+04 </wgt>
<wgt id='1029'> +7.4574055e+04 </wgt>
<wgt id='1030'> +7.4682788e+04 </wgt>
<wgt id='1031'> +7.4519889e+04 </wgt>
<wgt id='1032'> +7.4857145e+04 </wgt>
<wgt id='1033'> +7.4270575e+04 </wgt>
<wgt id='1034'> +7.4310916e+04 </wgt>
<wgt id='1035'> +7.4143480e+04 </wgt>
<wgt id='1036'> +7.4202629e+04 </wgt>
<wgt id='1037'> +7.5294463e+04 </wgt>
<wgt id='1038'> +7.4743789e+04 </wgt>
<wgt id='1039'> +7.4516960e+04 </wgt>
<wgt id='1040'> +7.4562213e+04 </wgt>
<wgt id='1041'> +7.4843824e+04 </wgt>
<wgt id='1042'> +7.4451412e+04 </wgt>
<wgt id='1043'> +7.4580748e+04 </wgt>
<wgt id='1044'> +7.4541826e+04 </wgt>
<wgt id='1045'> +7.4594097e+04 </wgt>
<wgt id='1046'> +7.4548346e+04 </wgt>
<wgt id='1047'> +7.4406697e+04 </wgt>
<wgt id='1048'> +7.4670218e+04 </wgt>
<wgt id='1049'> +7.4824521e+04 </wgt>
<wgt id='1050'> +7.4493727e+04 </wgt>
<wgt id='1051'> +7.4694770e+04 </wgt>
<wgt id='1052'> +7.4561688e+04 </wgt>
<wgt id='1053'> +7.4135047e+04 </wgt>
<wgt id='1054'> +7.4324903e+04 </wgt>
<wgt id='1055'> +7.4536792e+04 </wgt>
<wgt id='1056'> +7.4722874e+04 </wgt>
<wgt id='1057'> +7.4412611e+04 </wgt>
<wgt id='1058'> +7.4652564e+04 </wgt>
<wgt id='1059'> +7.4406657e+04 </wgt>
<wgt id='1060'> +7.4534840e+04 </wgt>
<wgt id='1061'> +7.4407704e+04 </wgt>
<wgt id='1062'> +7.4615432e+04 </wgt>
<wgt id='1063'> +7.4386612e+04 </wgt>
<wgt id='1064'> +7.4574513e+04 </wgt>
<wgt id='1065'> +7.4578017e+04 </wgt>
<wgt id='1066'> +7.4680991e+04 </wgt>
<wgt id='1067'> +7.4633442e+04 </wgt>
<wgt id='1068'> +7.4567140e+04 </wgt>
<wgt id='1069'> +7.4523985e+04 </wgt>
<wgt id='1070'> +7.4492430e+04 </wgt>
<wgt id='1071'> +7.4536158e+04 </wgt>
<wgt id='1072'> +7.4578943e+04 </wgt>
<wgt id='1073'> +7.4601938e+04 </wgt>
<wgt id='1074'> +7.4499877e+04 </wgt>
<wgt id='1075'> +7.4470749e+04 </wgt>
<wgt id='1076'> +7.4559391e+04 </wgt>
<wgt id='1077'> +7.4536697e+04 </wgt>
<wgt id='1078'> +7.4560671e+04 </wgt>
<wgt id='1079'> +7.4622835e+04 </wgt>
<wgt id='1080'> +7.4546550e+04 </wgt>
<wgt id='1081'> +7.4602328e+04 </wgt>
<wgt id='1082'> +7.4524267e+04 </wgt>
<wgt id='1083'> +7.4499173e+04 </wgt>
<wgt id='1084'> +7.4627057e+04 </wgt>
<wgt id='1085'> +7.4481329e+04 </wgt>
<wgt id='1086'> +7.4533009e+04 </wgt>
<wgt id='1087'> +7.4549352e+04 </wgt>
<wgt id='1088'> +7.4515115e+04 </wgt>
<wgt id='1089'> +7.4579071e+04 </wgt>
<wgt id='1090'> +7.4530839e+04 </wgt>
<wgt id='1091'> +7.4524505e+04 </wgt>
<wgt id='1092'> +7.4476230e+04 </wgt>
<wgt id='1093'> +7.4502899e+04 </wgt>
<wgt id='1094'> +7.4540860e+04 </wgt>
<wgt id='1095'> +7.4493778e+04 </wgt>
<wgt id='1096'> +7.4540727e+04 </wgt>
<wgt id='1097'> +7.4495502e+04 </wgt>
<wgt id='1098'> +7.4514384e+04 </wgt>
<wgt id='1099'> +7.4526946e+04 </wgt>
<wgt id='1100'> +7.4499472e+04 </wgt>
<wgt id='1101'> +7.4482518e+04 </wgt>
<wgt id='1102'> +7.4554069e+04 </wgt>
<wgt id='1103'> +7.4542027e+04 </wgt>
<wgt id='1104'> +7.4505918e+04 </wgt>
<wgt id='1105'> +7.4580011e+04 </wgt>
<wgt id='1106'> +7.4502673e+04 </wgt>
<wgt id='1107'> +7.4500970e+04 </wgt>
<wgt id='1108'> +7.4504830e+04 </wgt>
<wgt id='1109'> +7.4554718e+04 </wgt>
<wgt id='1110'> +7.4519532e+04 </wgt>
<wgt id='1111'> +7.3868254e+04 </wgt>
<wgt id='1112'> +7.5009829e+04 </wgt>
<wgt id='1113'> +7.4519532e+04 </wgt>
<wgt id='1114'> +8.0925142e+04 </wgt>
<wgt id='1115'> +7.4644346e+04 </wgt>
<wgt id='1116'> +7.0971777e+04 </wgt>
<wgt id='1117'> +7.1943019e+04 </wgt>
<wgt id='1118'> +7.3443909e+04 </wgt>
<wgt id='1119'> +7.7969733e+04 </wgt>
<wgt id='1120'> +7.5027009e+04 </wgt>
<wgt id='1121'> +7.2704294e+04 </wgt>
<wgt id='1122'> +7.2172200e+04 </wgt>
<wgt id='1123'> +7.3321967e+04 </wgt>
<wgt id='1124'> +7.5009984e+04 </wgt>
<wgt id='1125'> +7.2106968e+04 </wgt>
<wgt id='1126'> +7.3980331e+04 </wgt>
<wgt id='1127'> +7.3752404e+04 </wgt>
<wgt id='1128'> +7.5740747e+04 </wgt>
<wgt id='1129'> +7.5071776e+04 </wgt>
<wgt id='1130'> +7.7166110e+04 </wgt>
<wgt id='1131'> +7.3516152e+04 </wgt>
<wgt id='1132'> +7.4245221e+04 </wgt>
<wgt id='1133'> +7.1149880e+04 </wgt>
<wgt id='1134'> +7.1431031e+04 </wgt>
<wgt id='1135'> +7.4483176e+04 </wgt>
<wgt id='1136'> +7.7077463e+04 </wgt>
<wgt id='1137'> +7.4121507e+04 </wgt>
<wgt id='1138'> +7.2277668e+04 </wgt>
<wgt id='1139'> +7.6240848e+04 </wgt>
<wgt id='1140'> +7.8181229e+04 </wgt>
<wgt id='1141'> +7.4002634e+04 </wgt>
<wgt id='1142'> +7.6232759e+04 </wgt>
<wgt id='1143'> +7.6488470e+04 </wgt>
<wgt id='1144'> +7.5060278e+04 </wgt>
<wgt id='1145'> +7.3477254e+04 </wgt>
<wgt id='1146'> +7.5487686e+04 </wgt>
<wgt id='1147'> +7.2935995e+04 </wgt>
<wgt id='1148'> +7.6098325e+04 </wgt>
<wgt id='1149'> +7.3834292e+04 </wgt>
<wgt id='1150'> +7.4436303e+04 </wgt>
<wgt id='1151'> +7.3411969e+04 </wgt>
<wgt id='1152'> +7.2788116e+04 </wgt>
<wgt id='1153'> +7.3488303e+04 </wgt>
<wgt id='1154'> +7.3742237e+04 </wgt>
<wgt id='1155'> +7.5406297e+04 </wgt>
<wgt id='1156'> +7.6112242e+04 </wgt>
<wgt id='1157'> +7.5818643e+04 </wgt>
<wgt id='1158'> +7.5499980e+04 </wgt>
<wgt id='1159'> +7.5947896e+04 </wgt>
<wgt id='1160'> +7.4299213e+04 </wgt>
<wgt id='1161'> +7.4124067e+04 </wgt>
<wgt id='1162'> +7.6929167e+04 </wgt>
<wgt id='1163'> +7.5964358e+04 </wgt>
<wgt id='1164'> +7.4673633e+04 </wgt>
<wgt id='1165'> +7.3340104e+04 </wgt>
<wgt id='1166'> +7.5044829e+04 </wgt>
<wgt id='1167'> +7.7271648e+04 </wgt>
<wgt id='1168'> +7.4628662e+04 </wgt>
<wgt id='1169'> +7.5194378e+04 </wgt>
<wgt id='1170'> +7.7354743e+04 </wgt>
<wgt id='1171'> +7.3431138e+04 </wgt>
<wgt id='1172'> +7.4680508e+04 </wgt>
<wgt id='1173'> +7.5793065e+04 </wgt>
<wgt id='1174'> +7.4972298e+04 </wgt>
<wgt id='1175'> +7.5675777e+04 </wgt>
<wgt id='1176'> +7.3590271e+04 </wgt>
<wgt id='1177'> +7.2470320e+04 </wgt>
<wgt id='1178'> +7.5349427e+04 </wgt>
<wgt id='1179'> +7.5368537e+04 </wgt>
<wgt id='1180'> +7.5952819e+04 </wgt>
<wgt id='1181'> +7.6171684e+04 </wgt>
<wgt id='1182'> +7.5016712e+04 </wgt>
<wgt id='1183'> +7.4463975e+04 </wgt>
<wgt id='1184'> +7.3807783e+04 </wgt>
<wgt id='1185'> +7.7779245e+04 </wgt>
<wgt id='1186'> +7.0141044e+04 </wgt>
<wgt id='1187'> +7.1254993e+04 </wgt>
<wgt id='1188'> +7.3004920e+04 </wgt>
<wgt id='1189'> +7.6652043e+04 </wgt>
<wgt id='1190'> +7.1257156e+04 </wgt>
<wgt id='1191'> +7.4512151e+04 </wgt>
<wgt id='1192'> +7.3917001e+04 </wgt>
<wgt id='1193'> +7.5449280e+04 </wgt>
<wgt id='1194'> +7.3631663e+04 </wgt>
<wgt id='1195'> +7.5071776e+04 </wgt>
<wgt id='1196'> +7.4156934e+04 </wgt>
<wgt id='1197'> +7.3292525e+04 </wgt>
<wgt id='1198'> +7.3555866e+04 </wgt>
<wgt id='1199'> +7.8093629e+04 </wgt>
<wgt id='1200'> +7.4859669e+04 </wgt>
<wgt id='1201'> +7.6436834e+04 </wgt>
<wgt id='1202'> +6.9975675e+04 </wgt>
<wgt id='1203'> +7.3706538e+04 </wgt>
<wgt id='1204'> +7.5254622e+04 </wgt>
<wgt id='1205'> +7.3273716e+04 </wgt>
<wgt id='1206'> +7.3665440e+04 </wgt>
<wgt id='1207'> +7.7123304e+04 </wgt>
<wgt id='1208'> +7.3195777e+04 </wgt>
<wgt id='1209'> +7.3963093e+04 </wgt>
<wgt id='1210'> +7.5582490e+04 </wgt>
<wgt id='1211'> +7.3404467e+04 </wgt>
<wgt id='1212'> +7.1776620e+04 </wgt>
<wgt id='1213'> +7.3812448e+04 </wgt>
<wgt id='1214'> +7.4480563e+04 </wgt>
<wgt id='1215'> +7.3483947e+04 </wgt>
<wgt id='1216'> +7.3310233e+04 </wgt>
<wgt id='1217'> +7.3422678e+04 </wgt>
<wgt id='1218'> +7.3940790e+04 </wgt>
<wgt id='1219'> +7.4539208e+04 </wgt>
<wgt id='1220'> +7.4654351e+04 </wgt>
<wgt id='1221'> +7.5329909e+04 </wgt>
<wgt id='1222'> +7.5322672e+04 </wgt>
<wgt id='1223'> +7.2992669e+04 </wgt>
<wgt id='1224'> +7.2969719e+04 </wgt>
<wgt id='1225'> +7.3131358e+04 </wgt>
<wgt id='1226'> +7.2946913e+04 </wgt>
<wgt id='1227'> +7.3397244e+04 </wgt>
<wgt id='1228'> +7.3057646e+04 </wgt>
<wgt id='1229'> +7.2718881e+04 </wgt>
<wgt id='1230'> +7.3108077e+04 </wgt>
<wgt id='1231'> +7.2933442e+04 </wgt>
<wgt id='1232'> +7.3162316e+04 </wgt>
<wgt id='1233'> +7.2397081e+04 </wgt>
<wgt id='1234'> +7.2869790e+04 </wgt>
<wgt id='1235'> +7.3154307e+04 </wgt>
<wgt id='1236'> +7.3151941e+04 </wgt>
<wgt id='1237'> +7.3270114e+04 </wgt>
<wgt id='1238'> +7.2480388e+04 </wgt>
<wgt id='1239'> +7.3446683e+04 </wgt>
<wgt id='1240'> +7.2755909e+04 </wgt>
<wgt id='1241'> +7.3266987e+04 </wgt>
<wgt id='1242'> +7.2997685e+04 </wgt>
<wgt id='1243'> +7.2494615e+04 </wgt>
<wgt id='1244'> +7.3578378e+04 </wgt>
<wgt id='1245'> +7.3079218e+04 </wgt>
<wgt id='1246'> +7.2977940e+04 </wgt>
<wgt id='1247'> +7.3481312e+04 </wgt>
<wgt id='1248'> +7.2521896e+04 </wgt>
<wgt id='1249'> +7.3016242e+04 </wgt>
<wgt id='1250'> +7.2927644e+04 </wgt>
<wgt id='1251'> +7.2849160e+04 </wgt>
<wgt id='1252'> +7.3775879e+04 </wgt>
<wgt id='1253'> +7.3091531e+04 </wgt>
<wgt id='1254'> +7.2531748e+04 </wgt>
<wgt id='1255'> +7.3128322e+04 </wgt>
<wgt id='1256'> +7.2942869e+04 </wgt>
<wgt id='1257'> +7.3031038e+04 </wgt>
<wgt id='1258'> +7.3145274e+04 </wgt>
<wgt id='1259'> +7.3041920e+04 </wgt>
<wgt id='1260'> +7.2806001e+04 </wgt>
<wgt id='1261'> +7.2948551e+04 </wgt>
<wgt id='1262'> +7.2995719e+04 </wgt>
<wgt id='1263'> +7.2962136e+04 </wgt>
<wgt id='1264'> +7.3000538e+04 </wgt>
<wgt id='1265'> +7.2858532e+04 </wgt>
<wgt id='1266'> +7.2779864e+04 </wgt>
<wgt id='1267'> +7.2942129e+04 </wgt>
<wgt id='1268'> +7.2902844e+04 </wgt>
<wgt id='1269'> +7.3124226e+04 </wgt>
<wgt id='1270'> +7.3051160e+04 </wgt>
<wgt id='1271'> +7.3038009e+04 </wgt>
<wgt id='1272'> +7.3155419e+04 </wgt>
<wgt id='1273'> +7.3047953e+04 </wgt>
<wgt id='1274'> +7.2888324e+04 </wgt>
<wgt id='1275'> +7.2821777e+04 </wgt>
<wgt id='1276'> +7.2921075e+04 </wgt>
<wgt id='1277'> +7.2998679e+04 </wgt>
<wgt id='1278'> +7.3086675e+04 </wgt>
<wgt id='1279'> +7.3076494e+04 </wgt>
<wgt id='1280'> +7.2953928e+04 </wgt>
<wgt id='1281'> +7.2973286e+04 </wgt>
<wgt id='1282'> +7.2949427e+04 </wgt>
<wgt id='1283'> +7.2941689e+04 </wgt>
<wgt id='1284'> +7.3032358e+04 </wgt>
<wgt id='1285'> +7.3149709e+04 </wgt>
<wgt id='1286'> +7.3073351e+04 </wgt>
<wgt id='1287'> +7.2990918e+04 </wgt>
<wgt id='1288'> +7.3003259e+04 </wgt>
<wgt id='1289'> +7.2986597e+04 </wgt>
<wgt id='1290'> +7.2977423e+04 </wgt>
<wgt id='1291'> +7.2953317e+04 </wgt>
<wgt id='1292'> +7.2898484e+04 </wgt>
<wgt id='1293'> +7.3025460e+04 </wgt>
<wgt id='1294'> +7.3036334e+04 </wgt>
<wgt id='1295'> +7.3126684e+04 </wgt>
<wgt id='1296'> +7.2953482e+04 </wgt>
<wgt id='1297'> +7.3012529e+04 </wgt>
<wgt id='1298'> +7.3016608e+04 </wgt>
<wgt id='1299'> +7.2929418e+04 </wgt>
<wgt id='1300'> +7.3039990e+04 </wgt>
<wgt id='1301'> +7.2928348e+04 </wgt>
<wgt id='1302'> +7.3022191e+04 </wgt>
<wgt id='1303'> +7.2936760e+04 </wgt>
<wgt id='1304'> +7.2876519e+04 </wgt>
<wgt id='1305'> +7.3010361e+04 </wgt>
<wgt id='1306'> +7.2956601e+04 </wgt>
<wgt id='1307'> +7.3016092e+04 </wgt>
<wgt id='1308'> +7.2999516e+04 </wgt>
<wgt id='1309'> +7.2946384e+04 </wgt>
<wgt id='1310'> +7.2935334e+04 </wgt>
<wgt id='1311'> +7.3019301e+04 </wgt>
<wgt id='1312'> +7.3041793e+04 </wgt>
<wgt id='1313'> +7.2989866e+04 </wgt>
<wgt id='1314'> +7.2935223e+04 </wgt>
<wgt id='1315'> +7.3030312e+04 </wgt>
<wgt id='1316'> +7.2982171e+04 </wgt>
<wgt id='1317'> +7.3049959e+04 </wgt>
<wgt id='1318'> +7.2956087e+04 </wgt>
<wgt id='1319'> +7.2968109e+04 </wgt>
<wgt id='1320'> +7.2949533e+04 </wgt>
<wgt id='1321'> +7.3028377e+04 </wgt>
<wgt id='1322'> +7.2972012e+04 </wgt>
<wgt id='1323'> +7.3016019e+04 </wgt>
<wgt id='1324'> +7.2647346e+04 </wgt>
<wgt id='1325'> +7.3556686e+04 </wgt>
<wgt id='1326'> +7.1642589e+04 </wgt>
<wgt id='1327'> +6.7342549e+04 </wgt>
<wgt id='1328'> +7.4501293e+04 </wgt>
<wgt id='1329'> +7.3484308e+04 </wgt>
<wgt id='1330'> +7.5923857e+04 </wgt>
<wgt id='1331'> +7.3932217e+04 </wgt>
<wgt id='1332'> +7.5677160e+04 </wgt>
<wgt id='1333'> +7.4931794e+04 </wgt>
<wgt id='1334'> +7.3890933e+04 </wgt>
<wgt id='1335'> +7.2898149e+04 </wgt>
<wgt id='1336'> +7.5187287e+04 </wgt>
<wgt id='1337'> +7.4819502e+04 </wgt>
<wgt id='1338'> +7.4391649e+04 </wgt>
<wgt id='1339'> +7.3961947e+04 </wgt>
<wgt id='1340'> +7.2814545e+04 </wgt>
<wgt id='1341'> +7.3127150e+04 </wgt>
<wgt id='1342'> +7.6044759e+04 </wgt>
<wgt id='1343'> +7.5282476e+04 </wgt>
<wgt id='1344'> +7.5045549e+04 </wgt>
<wgt id='1345'> +7.5129128e+04 </wgt>
<wgt id='1346'> +7.5100669e+04 </wgt>
<wgt id='1347'> +7.5791872e+04 </wgt>
<wgt id='1348'> +7.1489395e+04 </wgt>
<wgt id='1349'> +7.4588619e+04 </wgt>
<wgt id='1350'> +7.5615106e+04 </wgt>
<wgt id='1351'> +7.3957772e+04 </wgt>
<wgt id='1352'> +7.5758595e+04 </wgt>
<wgt id='1353'> +7.7387727e+04 </wgt>
<wgt id='1354'> +7.4628618e+04 </wgt>
<wgt id='1355'> +7.4772830e+04 </wgt>
<wgt id='1356'> +7.4982299e+04 </wgt>
<wgt id='1357'> +7.3704270e+04 </wgt>
<wgt id='1358'> +7.5518597e+04 </wgt>
<wgt id='1359'> +7.3844162e+04 </wgt>
<wgt id='1360'> +7.6799112e+04 </wgt>
<wgt id='1361'> +7.7121380e+04 </wgt>
<wgt id='1362'> +7.5971580e+04 </wgt>
<wgt id='1363'> +7.3847343e+04 </wgt>
<wgt id='1364'> +7.4701034e+04 </wgt>
<wgt id='1365'> +7.4238259e+04 </wgt>
<wgt id='1366'> +7.4528602e+04 </wgt>
<wgt id='1367'> +7.6439387e+04 </wgt>
<wgt id='1368'> +7.4418177e+04 </wgt>
<wgt id='1369'> +7.3699171e+04 </wgt>
<wgt id='1370'> +7.1954222e+04 </wgt>
<wgt id='1371'> +7.4520241e+04 </wgt>
<wgt id='1372'> +7.6859068e+04 </wgt>
<wgt id='1373'> +7.3725741e+04 </wgt>
<wgt id='1374'> +7.4707077e+04 </wgt>
<wgt id='1375'> +7.4903062e+04 </wgt>
<wgt id='1376'> +7.4245762e+04 </wgt>
<wgt id='1377'> +7.5410178e+04 </wgt>
<wgt id='1378'> +7.4338777e+04 </wgt>
<wgt id='1379'> +7.4532098e+04 </wgt>
<wgt id='1380'> +7.5557165e+04 </wgt>
<wgt id='1381'> +7.4467482e+04 </wgt>
<wgt id='1382'> +7.2069670e+04 </wgt>
<wgt id='1383'> +7.3848355e+04 </wgt>
<wgt id='1384'> +7.4837893e+04 </wgt>
<wgt id='1385'> +7.0276972e+04 </wgt>
<wgt id='1386'> +7.5601332e+04 </wgt>
<wgt id='1387'> +7.3356618e+04 </wgt>
<wgt id='1388'> +7.4573987e+04 </wgt>
<wgt id='1389'> +7.4889173e+04 </wgt>
<wgt id='1390'> +7.0984762e+04 </wgt>
<wgt id='1391'> +7.3336019e+04 </wgt>
<wgt id='1392'> +7.3259821e+04 </wgt>
<wgt id='1393'> +7.1863369e+04 </wgt>
<wgt id='1394'> +7.4238259e+04 </wgt>
<wgt id='1395'> +7.4907153e+04 </wgt>
<wgt id='1396'> +7.6522203e+04 </wgt>
<wgt id='1397'> +7.5444521e+04 </wgt>
<wgt id='1398'> +7.5074690e+04 </wgt>
<wgt id='1399'> +7.4399795e+04 </wgt>
<wgt id='1400'> +7.6015777e+04 </wgt>
<wgt id='1401'> +7.3873954e+04 </wgt>
<wgt id='1402'> +7.5537714e+04 </wgt>
<wgt id='1403'> +7.6115643e+04 </wgt>
<wgt id='1404'> +7.5362117e+04 </wgt>
<wgt id='1405'> +7.2519273e+04 </wgt>
<wgt id='1406'> +7.4658990e+04 </wgt>
<wgt id='1407'> +7.6264350e+04 </wgt>
<wgt id='1408'> +7.5218342e+04 </wgt>
<wgt id='1409'> +7.3366135e+04 </wgt>
<wgt id='1410'> +7.5128655e+04 </wgt>
<wgt id='1411'> +7.4705091e+04 </wgt>
<wgt id='1412'> +7.5352930e+04 </wgt>
<wgt id='1413'> +7.4972957e+04 </wgt>
<wgt id='1414'> +7.0756589e+04 </wgt>
<wgt id='1415'> +7.3028663e+04 </wgt>
<wgt id='1416'> +7.3184597e+04 </wgt>
<wgt id='1417'> +7.3876436e+04 </wgt>
<wgt id='1418'> +7.6625960e+04 </wgt>
<wgt id='1419'> +7.4029732e+04 </wgt>
<wgt id='1420'> +7.1608202e+04 </wgt>
<wgt id='1421'> +7.5300168e+04 </wgt>
<wgt id='1422'> +7.4057227e+04 </wgt>
<wgt id='1423'> +7.3968785e+04 </wgt>
<wgt id='1424'> +7.3235515e+04 </wgt>
<wgt id='1425'> +7.4843126e+04 </wgt>
<wgt id='1426'> +7.4757321e+04 </wgt>
<wgt id='1427'> +7.5070609e+04 </wgt>
<wgt id='1428'> +7.5944456e+04 </wgt>
<wgt id='1429'> +7.4508210e+04 </wgt>
<wgt id='1430'> +7.4256328e+04 </wgt>
<wgt id='1431'> +7.4444299e+04 </wgt>
<wgt id='1432'> +7.4625617e+04 </wgt>
<wgt id='1433'> +7.4281570e+04 </wgt>
<wgt id='1434'> +7.4405530e+04 </wgt>
<wgt id='1435'> +7.4243211e+04 </wgt>
<wgt id='1436'> +7.3751638e+04 </wgt>
<wgt id='1437'> +7.4725822e+04 </wgt>
<wgt id='1438'> +7.4434655e+04 </wgt>
<wgt id='1439'> +7.3683048e+04 </wgt>
<wgt id='1440'> +7.4292268e+04 </wgt>
<wgt id='1441'> +7.4126377e+04 </wgt>
<wgt id='1442'> +7.4312095e+04 </wgt>
<wgt id='1443'> +7.4255492e+04 </wgt>
<wgt id='1444'> +7.4186939e+04 </wgt>
<wgt id='1445'> +7.4244093e+04 </wgt>
<wgt id='1446'> +7.4315084e+04 </wgt>
<wgt id='1447'> +7.4344897e+04 </wgt>
<wgt id='1448'> +7.4500914e+04 </wgt>
<wgt id='1449'> +7.4491594e+04 </wgt>
<wgt id='1450'> +7.4421399e+04 </wgt>
<wgt id='1451'> +7.4394288e+04 </wgt>
<wgt id='1452'> +7.4162926e+04 </wgt>
<wgt id='1453'> +7.4353527e+04 </wgt>
<wgt id='1454'> +7.4493702e+04 </wgt>
<wgt id='1455'> +7.4565882e+04 </wgt>
<wgt id='1456'> +7.4486443e+04 </wgt>
<wgt id='1457'> +7.4314487e+04 </wgt>
<wgt id='1458'> +7.4410332e+04 </wgt>
<wgt id='1459'> +7.4500882e+04 </wgt>
<wgt id='1460'> +7.4450758e+04 </wgt>
<wgt id='1461'> +7.4465171e+04 </wgt>
<wgt id='1462'> +7.4487719e+04 </wgt>
<wgt id='1463'> +7.4394677e+04 </wgt>
<wgt id='1464'> +7.4431204e+04 </wgt>
<wgt id='1465'> +7.4407713e+04 </wgt>
<wgt id='1466'> +7.4376817e+04 </wgt>
<wgt id='1467'> +7.4475936e+04 </wgt>
<wgt id='1468'> +7.4505507e+04 </wgt>
<wgt id='1469'> +7.4441439e+04 </wgt>
<wgt id='1470'> +7.4455584e+04 </wgt>
<wgt id='1471'> +7.4435350e+04 </wgt>
<wgt id='1472'> +7.4494291e+04 </wgt>
<wgt id='1473'> +7.4430624e+04 </wgt>
<wgt id='1474'> +7.4425594e+04 </wgt>
<wgt id='1475'> +7.4447482e+04 </wgt>
<wgt id='1476'> +7.4433544e+04 </wgt>
<wgt id='1477'> +7.4432761e+04 </wgt>
<wgt id='1478'> +7.4427845e+04 </wgt>
<wgt id='1479'> +7.4420814e+04 </wgt>
<wgt id='1480'> +7.4413350e+04 </wgt>
<wgt id='1481'> +7.4468230e+04 </wgt>
<wgt id='1482'> +7.4508210e+04 </wgt>
<wgt id='1483'> +7.4256328e+04 </wgt>
<wgt id='1484'> +7.4453604e+04 </wgt>
<wgt id='1485'> +7.5065446e+04 </wgt>
<wgt id='1486'> +7.4949003e+04 </wgt>
<wgt id='1487'> +7.4309363e+04 </wgt>
<wgt id='1488'> +7.4848442e+04 </wgt>
<wgt id='1489'> +7.4030903e+04 </wgt>
<wgt id='1490'> +7.2773768e+04 </wgt>
<wgt id='1491'> +7.3297424e+04 </wgt>
<wgt id='1492'> +7.3380492e+04 </wgt>
<wgt id='1493'> +7.5265466e+04 </wgt>
<wgt id='1494'> +7.4016169e+04 </wgt>
<wgt id='1495'> +7.2689359e+04 </wgt>
<wgt id='1496'> +7.3132488e+04 </wgt>
<wgt id='1497'> +7.2431192e+04 </wgt>
<wgt id='1498'> +7.5832698e+04 </wgt>
<wgt id='1499'> +7.4452075e+04 </wgt>
<wgt id='1500'> +7.2580004e+04 </wgt>
<wgt id='1501'> +7.3351602e+04 </wgt>
<wgt id='1502'> +7.5008530e+04 </wgt>
<wgt id='1503'> +7.3109794e+04 </wgt>
<wgt id='1504'> +7.3990389e+04 </wgt>
<wgt id='1505'> +7.4660383e+04 </wgt>
<wgt id='1506'> +7.4353164e+04 </wgt>
<wgt id='1507'> +7.4278916e+04 </wgt>
<wgt id='1508'> +7.1913217e+04 </wgt>
<wgt id='1509'> +7.6158218e+04 </wgt>
<wgt id='1510'> +7.6277646e+04 </wgt>
<wgt id='1511'> +7.5823333e+04 </wgt>
<wgt id='1512'> +7.4220538e+04 </wgt>
<wgt id='1513'> +7.2770768e+04 </wgt>
<wgt id='1514'> +7.4335717e+04 </wgt>
<wgt id='1515'> +7.3907826e+04 </wgt>
<wgt id='1516'> +7.4012038e+04 </wgt>
<wgt id='1517'> +7.4971539e+04 </wgt>
<wgt id='1518'> +7.4163367e+04 </wgt>
<wgt id='1519'> +7.3942782e+04 </wgt>
<wgt id='1520'> +7.5966529e+04 </wgt>
<wgt id='1521'> +7.4352355e+04 </wgt>
<wgt id='1522'> +7.4365689e+04 </wgt>
<wgt id='1523'> +7.4081698e+04 </wgt>
<wgt id='1524'> +7.5565625e+04 </wgt>
<wgt id='1525'> +7.4644372e+04 </wgt>
<wgt id='1526'> +7.3981881e+04 </wgt>
<wgt id='1527'> +7.4639408e+04 </wgt>
<wgt id='1528'> +7.4873669e+04 </wgt>
<wgt id='1529'> +7.4492259e+04 </wgt>
<wgt id='1530'> +7.3304096e+04 </wgt>
<wgt id='1531'> +7.5358009e+04 </wgt>
<wgt id='1532'> +7.3366020e+04 </wgt>
<wgt id='1533'> +7.6447292e+04 </wgt>
<wgt id='1534'> +7.4146015e+04 </wgt>
<wgt id='1535'> +7.4288212e+04 </wgt>
<wgt id='1536'> +7.4465919e+04 </wgt>
<wgt id='1537'> +7.5878870e+04 </wgt>
<wgt id='1538'> +7.4584664e+04 </wgt>
<wgt id='1539'> +7.4924782e+04 </wgt>
<wgt id='1540'> +7.4672363e+04 </wgt>
<wgt id='1541'> +7.5351509e+04 </wgt>
<wgt id='1542'> +7.4152019e+04 </wgt>
<wgt id='1543'> +7.5138284e+04 </wgt>
<wgt id='1544'> +7.4713974e+04 </wgt>
<wgt id='1545'> +7.5363462e+04 </wgt>
<wgt id='1546'> +7.4054891e+04 </wgt>
<wgt id='1547'> +7.5173392e+04 </wgt>
<wgt id='1548'> +7.4381099e+04 </wgt>
<wgt id='1549'> +7.5180418e+04 </wgt>
<wgt id='1550'> +7.5417802e+04 </wgt>
<wgt id='1551'> +7.5319735e+04 </wgt>
<wgt id='1552'> +7.5139926e+04 </wgt>
<wgt id='1553'> +7.5437817e+04 </wgt>
<wgt id='1554'> +7.5128595e+04 </wgt>
<wgt id='1555'> +7.3480086e+04 </wgt>
<wgt id='1556'> +7.3030139e+04 </wgt>
<wgt id='1557'> +7.3822932e+04 </wgt>
<wgt id='1558'> +7.4626086e+04 </wgt>
<wgt id='1559'> +7.5966959e+04 </wgt>
<wgt id='1560'> +7.5846122e+04 </wgt>
<wgt id='1561'> +7.6419403e+04 </wgt>
<wgt id='1562'> +7.4594440e+04 </wgt>
<wgt id='1563'> +7.5312181e+04 </wgt>
<wgt id='1564'> +7.5304543e+04 </wgt>
<wgt id='1565'> +7.5716400e+04 </wgt>
<wgt id='1566'> +7.2883930e+04 </wgt>
<wgt id='1567'> +7.4414004e+04 </wgt>
<wgt id='1568'> +7.3802014e+04 </wgt>
<wgt id='1569'> +7.4739178e+04 </wgt>
<wgt id='1570'> +7.4652004e+04 </wgt>
<wgt id='1571'> +7.4723503e+04 </wgt>
<wgt id='1572'> +7.4146440e+04 </wgt>
<wgt id='1573'> +7.4523077e+04 </wgt>
<wgt id='1574'> +7.2174619e+04 </wgt>
<wgt id='1575'> +7.4011425e+04 </wgt>
<wgt id='1576'> +7.5285569e+04 </wgt>
<wgt id='1577'> +7.2983925e+04 </wgt>
<wgt id='1578'> +7.4417888e+04 </wgt>
<wgt id='1579'> +7.2479375e+04 </wgt>
<wgt id='1580'> +7.5247145e+04 </wgt>
<wgt id='1581'> +7.6150607e+04 </wgt>
<wgt id='1582'> +7.5913198e+04 </wgt>
<wgt id='1583'> +7.4730131e+04 </wgt>
<wgt id='1584'> +7.1138134e+04 </wgt>
<wgt id='1585'> +7.2265046e+04 </wgt>
<wgt id='1586'> +6.6596890e+04 </wgt>
<wgt id='1587'> +7.4751679e+04 </wgt>
<wgt id='1588'> +7.4508210e+04 </wgt>
<wgt id='1589'> +7.4320494e+04 </wgt>
<wgt id='1590'> +7.4039722e+04 </wgt>
<wgt id='1591'> +7.4256328e+04 </wgt>
<wgt id='1592'> +7.3841238e+04 </wgt>
<wgt id='1593'> +7.4142522e+04 </wgt>
<wgt id='1594'> +7.3133686e+04 </wgt>
<wgt id='1595'> +7.3376343e+04 </wgt>
<wgt id='1596'> +7.4128273e+04 </wgt>
<wgt id='1597'> +7.4206316e+04 </wgt>
<wgt id='1598'> +7.2975789e+04 </wgt>
<wgt id='1599'> +7.4744918e+04 </wgt>
<wgt id='1600'> +7.2210657e+04 </wgt>
<wgt id='1601'> +7.5760296e+04 </wgt>
<wgt id='1602'> +7.1392700e+04 </wgt>
<wgt id='1603'> +7.6527158e+04 </wgt>
<wgt id='1604'> +7.4635557e+04 </wgt>
<wgt id='1605'> +7.4415610e+04 </wgt>
<wgt id='1606'> +7.2910356e+04 </wgt>
<wgt id='1607'> +7.4731292e+04 </wgt>
<wgt id='1608'> +7.3494582e+04 </wgt>
<wgt id='1609'> +7.3677774e+04 </wgt>
<wgt id='1610'> +7.4371681e+04 </wgt>
<wgt id='1611'> +7.3596872e+04 </wgt>
<wgt id='1612'> +7.5017808e+04 </wgt>
<wgt id='1613'> +7.1842493e+04 </wgt>
<wgt id='1614'> +7.4579662e+04 </wgt>
<wgt id='1615'> +7.3432244e+04 </wgt>
<wgt id='1616'> +7.4030981e+04 </wgt>
<wgt id='1617'> +7.3313049e+04 </wgt>
<wgt id='1618'> +7.4314497e+04 </wgt>
<wgt id='1619'> +7.3889614e+04 </wgt>
<wgt id='1620'> +7.3406499e+04 </wgt>
<wgt id='1621'> +7.4373898e+04 </wgt>
<wgt id='1622'> +7.3753522e+04 </wgt>
<wgt id='1623'> +7.3382861e+04 </wgt>
<wgt id='1624'> +7.4199675e+04 </wgt>
<wgt id='1625'> +7.3036595e+04 </wgt>
<wgt id='1626'> +7.3162763e+04 </wgt>
<wgt id='1627'> +7.4390938e+04 </wgt>
<wgt id='1628'> +7.4826036e+04 </wgt>
<wgt id='1629'> +7.3649591e+04 </wgt>
<wgt id='1630'> +7.4291749e+04 </wgt>
<wgt id='1631'> +7.3255562e+04 </wgt>
<wgt id='1632'> +7.4780217e+04 </wgt>
<wgt id='1633'> +7.2891113e+04 </wgt>
<wgt id='1634'> +7.4795959e+04 </wgt>
<wgt id='1635'> +7.3250710e+04 </wgt>
<wgt id='1636'> +7.3218506e+04 </wgt>
<wgt id='1637'> +7.4926195e+04 </wgt>
<wgt id='1638'> +7.3517253e+04 </wgt>
<wgt id='1639'> +7.4396458e+04 </wgt>
<wgt id='1640'> +7.4973727e+04 </wgt>
<wgt id='1641'> +7.2908985e+04 </wgt>
<wgt id='1642'> +7.2951797e+04 </wgt>
<wgt id='1643'> +7.4943219e+04 </wgt>
<wgt id='1644'> +7.5370350e+04 </wgt>
<wgt id='1645'> +7.1947796e+04 </wgt>
<wgt id='1646'> +7.4185096e+04 </wgt>
<wgt id='1647'> +7.4368186e+04 </wgt>
<wgt id='1648'> +7.4709512e+04 </wgt>
<wgt id='1649'> +7.3676208e+04 </wgt>
<wgt id='1650'> +7.4203933e+04 </wgt>
<wgt id='1651'> +7.4115938e+04 </wgt>
<wgt id='1652'> +7.3695011e+04 </wgt>
<wgt id='1653'> +7.3908934e+04 </wgt>
<wgt id='1654'> +7.4401747e+04 </wgt>
<wgt id='1655'> +7.4690008e+04 </wgt>
<wgt id='1656'> +7.5341843e+04 </wgt>
<wgt id='1657'> +7.4641780e+04 </wgt>
<wgt id='1658'> +7.4491425e+04 </wgt>
<wgt id='1659'> +7.6410712e+04 </wgt>
<wgt id='1660'> +7.4638011e+04 </wgt>
<wgt id='1661'> +7.6436677e+04 </wgt>
<wgt id='1662'> +7.3935722e+04 </wgt>
<wgt id='1663'> +7.4077591e+04 </wgt>
<wgt id='1664'> +7.4827319e+04 </wgt>
<wgt id='1665'> +7.4516467e+04 </wgt>
<wgt id='1666'> +7.5192980e+04 </wgt>
<wgt id='1667'> +7.5138973e+04 </wgt>
<wgt id='1668'> +7.5363903e+04 </wgt>
<wgt id='1669'> +7.6372590e+04 </wgt>
<wgt id='1670'> +7.3483934e+04 </wgt>
<wgt id='1671'> +7.5701259e+04 </wgt>
<wgt id='1672'> +7.5010454e+04 </wgt>
<wgt id='1673'> +7.4909510e+04 </wgt>
<wgt id='1674'> +7.5631264e+04 </wgt>
<wgt id='1675'> +7.5521893e+04 </wgt>
<wgt id='1676'> +7.5315659e+04 </wgt>
<wgt id='1677'> +7.4735542e+04 </wgt>
<wgt id='1678'> +7.6024605e+04 </wgt>
<wgt id='1679'> +7.4869212e+04 </wgt>
<wgt id='1680'> +7.6446758e+04 </wgt>
<wgt id='1681'> +7.6023331e+04 </wgt>
<wgt id='1682'> +7.3956845e+04 </wgt>
<wgt id='1683'> +7.5333217e+04 </wgt>
<wgt id='1684'> +7.5212910e+04 </wgt>
<wgt id='1685'> +7.5166986e+04 </wgt>
<wgt id='1686'> +7.4955119e+04 </wgt>
<wgt id='1687'> +7.6367317e+04 </wgt>
<wgt id='1688'> +7.3598604e+04 </wgt>
<wgt id='1689'> +7.5765011e+04 </wgt>
<wgt id='1690'> +7.5105659e+04 </wgt>
<wgt id='1691'> +7.5636674e+04 </wgt>
<wgt id='1692'> +7.4465424e+04 </wgt>
<wgt id='1693'> +7.8036042e+04 </wgt>
<wgt id='1694'> +7.3341184e+04 </wgt>
<wgt id='1695'> +7.5189098e+04 </wgt>
<wgt id='1696'> +7.5015773e+04 </wgt>
<wgt id='1697'> +7.5913704e+04 </wgt>
<wgt id='1698'> +7.4696961e+04 </wgt>
<wgt id='1699'> +7.4433720e+04 </wgt>
<wgt id='1700'> +7.6166955e+04 </wgt>
<wgt id='1701'> +7.3737016e+04 </wgt>
<wgt id='1702'> +7.7129424e+04 </wgt>
<wgt id='1703'> +7.5941753e+04 </wgt>
<wgt id='1704'> +7.5246110e+04 </wgt>
<wgt id='1705'> +7.5142314e+04 </wgt>
<wgt id='1706'> +7.5216505e+04 </wgt>
<wgt id='1707'> +7.3761202e+04 </wgt>
<wgt id='1708'> +7.6544721e+04 </wgt>
<wgt id='1709'> +7.5301352e+04 </wgt>
<wgt id='1710'> +7.5541507e+04 </wgt>
<wgt id='1711'> +7.4723162e+04 </wgt>
<wgt id='1712'> +7.5042426e+04 </wgt>
<wgt id='1713'> +7.4825711e+04 </wgt>
<wgt id='1714'> +7.5478354e+04 </wgt>
<wgt id='1715'> +7.2450749e+04 </wgt>
<wgt id='1716'> +7.5560859e+04 </wgt>
<wgt id='1717'> +6.9601530e+04 </wgt>
<wgt id='1718'> +6.9642790e+04 </wgt>
<wgt id='1719'> +6.9547214e+04 </wgt>
<wgt id='1720'> +6.9129957e+04 </wgt>
<wgt id='1721'> +7.0033711e+04 </wgt>
<wgt id='1722'> +6.9315780e+04 </wgt>
<wgt id='1723'> +7.0070916e+04 </wgt>
<wgt id='1724'> +6.9962329e+04 </wgt>
<wgt id='1725'> +6.9308543e+04 </wgt>
<wgt id='1726'> +6.9516919e+04 </wgt>
<wgt id='1727'> +6.9688517e+04 </wgt>
<wgt id='1728'> +6.8927864e+04 </wgt>
<wgt id='1729'> +7.0256954e+04 </wgt>
<wgt id='1730'> +6.9846439e+04 </wgt>
<wgt id='1731'> +6.9427417e+04 </wgt>
<wgt id='1732'> +6.9987089e+04 </wgt>
<wgt id='1733'> +6.9987089e+04 </wgt>
<wgt id='1734'> +6.9504426e+04 </wgt>
<wgt id='1735'> +6.9664856e+04 </wgt>
<wgt id='1736'> +6.9300495e+04 </wgt>
<wgt id='1737'> +7.0024225e+04 </wgt>
<wgt id='1738'> +6.9735368e+04 </wgt>
<wgt id='1739'> +6.9327872e+04 </wgt>
<wgt id='1740'> +6.9530618e+04 </wgt>
<wgt id='1741'> +6.9770168e+04 </wgt>
<wgt id='1742'> +6.9540505e+04 </wgt>
<wgt id='1743'> +6.9681126e+04 </wgt>
<wgt id='1744'> +6.9735342e+04 </wgt>
<wgt id='1745'> +6.9235810e+04 </wgt>
<wgt id='1746'> +6.9479998e+04 </wgt>
<wgt id='1747'> +6.9648686e+04 </wgt>
<wgt id='1748'> +6.9806655e+04 </wgt>
<wgt id='1749'> +6.8915522e+04 </wgt>
<wgt id='1750'> +6.9821476e+04 </wgt>
<wgt id='1751'> +6.9366810e+04 </wgt>
<wgt id='1752'> +6.9598524e+04 </wgt>
<wgt id='1753'> +6.9614897e+04 </wgt>
<wgt id='1754'> +6.9834739e+04 </wgt>
<wgt id='1755'> +6.9470933e+04 </wgt>
<wgt id='1756'> +6.9362513e+04 </wgt>
<wgt id='1757'> +7.0209543e+04 </wgt>
<wgt id='1758'> +6.9798005e+04 </wgt>
<wgt id='1759'> +6.9365312e+04 </wgt>
<wgt id='1760'> +7.0001759e+04 </wgt>
<wgt id='1761'> +6.9241100e+04 </wgt>
<wgt id='1762'> +6.9524640e+04 </wgt>
<wgt id='1763'> +6.9432127e+04 </wgt>
<wgt id='1764'> +6.9489900e+04 </wgt>
<wgt id='1765'> +7.0111994e+04 </wgt>
<wgt id='1766'> +6.9561285e+04 </wgt>
<wgt id='1767'> +6.9667027e+04 </wgt>
<wgt id='1768'> +6.9542504e+04 </wgt>
<wgt id='1769'> +6.9628090e+04 </wgt>
<wgt id='1770'> +6.9292934e+04 </wgt>
<wgt id='1771'> +6.9673711e+04 </wgt>
<wgt id='1772'> +6.9851854e+04 </wgt>
<wgt id='1773'> +6.9346181e+04 </wgt>
<wgt id='1774'> +6.8825759e+04 </wgt>
<wgt id='1775'> +7.0107312e+04 </wgt>
<wgt id='1776'> +6.9274585e+04 </wgt>
<wgt id='1777'> +6.9757621e+04 </wgt>
<wgt id='1778'> +6.9122510e+04 </wgt>
<wgt id='1779'> +6.9524041e+04 </wgt>
<wgt id='1780'> +7.0476052e+04 </wgt>
<wgt id='1781'> +6.9859577e+04 </wgt>
<wgt id='1782'> +6.9601530e+04 </wgt>
<wgt id='1783'> +6.9647811e+04 </wgt>
<wgt id='1784'> +7.2017494e+04 </wgt>
<wgt id='1785'> +7.2237738e+04 </wgt>
<wgt id='1786'> +6.9732023e+04 </wgt>
<wgt id='1787'> +7.2063509e+04 </wgt>
<wgt id='1788'> +7.2061691e+04 </wgt>
<wgt id='1789'> +7.2098601e+04 </wgt>
<wgt id='1790'> +7.2149257e+04 </wgt>
<wgt id='1791'> +7.2196910e+04 </wgt>
<wgt id='1792'> +7.1134235e+04 </wgt>
<wgt id='1793'> +7.2309337e+04 </wgt>
<wgt id='1794'> +7.2206997e+04 </wgt>
<wgt id='1795'> +7.1883283e+04 </wgt>
<wgt id='1796'> +7.2105757e+04 </wgt>
<wgt id='1797'> +7.2215882e+04 </wgt>
<wgt id='1798'> +7.2267569e+04 </wgt>
<wgt id='1799'> +7.2677470e+04 </wgt>
<wgt id='1800'> +7.2469787e+04 </wgt>
<wgt id='1801'> +7.2801423e+04 </wgt>
<wgt id='1802'> +7.2878016e+04 </wgt>
<wgt id='1803'> +7.2143177e+04 </wgt>
<wgt id='1804'> +7.2017921e+04 </wgt>
<wgt id='1805'> +7.1447863e+04 </wgt>
<wgt id='1806'> +7.2116683e+04 </wgt>
<wgt id='1807'> +7.2059778e+04 </wgt>
<wgt id='1808'> +7.2141050e+04 </wgt>
<wgt id='1809'> +7.1844936e+04 </wgt>
<wgt id='1810'> +7.1980242e+04 </wgt>
<wgt id='1811'> +7.2010679e+04 </wgt>
<wgt id='1812'> +7.1865886e+04 </wgt>
<wgt id='1813'> +7.1498413e+04 </wgt>
<wgt id='1814'> +7.2243898e+04 </wgt>
<wgt id='1815'> +7.1867665e+04 </wgt>
<wgt id='1816'> +7.2049561e+04 </wgt>
<wgt id='1817'> +7.2083889e+04 </wgt>
<wgt id='1818'> +7.2076511e+04 </wgt>
<wgt id='1819'> +7.2010120e+04 </wgt>
<wgt id='1820'> +7.2045955e+04 </wgt>
<wgt id='1821'> +7.1727510e+04 </wgt>
<wgt id='1822'> +7.1943323e+04 </wgt>
<wgt id='1823'> +7.2016123e+04 </wgt>
<wgt id='1824'> +7.2257145e+04 </wgt>
<wgt id='1825'> +7.1853753e+04 </wgt>
<wgt id='1826'> +7.2609629e+04 </wgt>
<wgt id='1827'> +7.3526835e+04 </wgt>
<wgt id='1828'> +7.3713603e+04 </wgt>
<wgt id='1829'> +7.3346898e+04 </wgt>
<wgt id='1830'> +7.3440227e+04 </wgt>
<wgt id='1831'> +7.3619310e+04 </wgt>
<wgt id='1832'> +7.3605101e+04 </wgt>
<wgt id='1833'> +7.3454506e+04 </wgt>
<wgt id='1834'> +7.3210444e+04 </wgt>
<wgt id='1835'> +7.3833184e+04 </wgt>
<wgt id='1836'> +7.3901460e+04 </wgt>
<wgt id='1837'> +7.3153392e+04 </wgt>
<wgt id='1838'> +7.3872261e+04 </wgt>
<wgt id='1839'> +7.3184517e+04 </wgt>
<wgt id='1840'> +7.3307917e+04 </wgt>
<wgt id='1841'> +7.3754363e+04 </wgt>
<wgt id='1842'> +7.3487621e+04 </wgt>
<wgt id='1843'> +7.3624359e+04 </wgt>
<wgt id='1844'> +7.3573853e+04 </wgt>
<wgt id='1845'> +7.3465906e+04 </wgt>
<wgt id='1846'> +7.3571215e+04 </wgt>
<wgt id='1847'> +7.3461774e+04 </wgt>
<wgt id='1848'> +7.3294551e+04 </wgt>
<wgt id='1849'> +7.3661217e+04 </wgt>
<wgt id='1850'> +7.3915967e+04 </wgt>
<wgt id='1851'> +7.3140503e+04 </wgt>
<wgt id='1852'> +7.4246678e+04 </wgt>
<wgt id='1853'> +7.2679652e+04 </wgt>
<wgt id='1854'> +7.4263322e+04 </wgt>
<wgt id='1855'> +7.2865184e+04 </wgt>
<wgt id='1856'> +7.1675770e+04 </wgt>
<wgt id='1857'> +7.1664728e+04 </wgt>
<wgt id='1858'> +7.1589392e+04 </wgt>
<wgt id='1859'> +7.1695565e+04 </wgt>
<wgt id='1860'> +7.1677916e+04 </wgt>
<wgt id='1861'> +7.1769182e+04 </wgt>
<wgt id='1862'> +7.1289023e+04 </wgt>
<wgt id='1863'> +7.1817104e+04 </wgt>
<wgt id='1864'> +7.1500459e+04 </wgt>
<wgt id='1865'> +7.1493030e+04 </wgt>
<wgt id='1866'> +7.1601926e+04 </wgt>
<wgt id='1867'> +7.1605639e+04 </wgt>
<wgt id='1868'> +7.1687874e+04 </wgt>
<wgt id='1869'> +7.1799132e+04 </wgt>
<wgt id='1870'> +7.1549147e+04 </wgt>
<wgt id='1871'> +7.1707943e+04 </wgt>
<wgt id='1872'> +7.1533311e+04 </wgt>
<wgt id='1873'> +7.1649682e+04 </wgt>
<wgt id='1874'> +7.1592175e+04 </wgt>
<wgt id='1875'> +7.1766757e+04 </wgt>
<wgt id='1876'> +7.1580164e+04 </wgt>
<wgt id='1877'> +7.1406843e+04 </wgt>
<wgt id='1878'> +7.1597512e+04 </wgt>
<wgt id='1879'> +7.1930824e+04 </wgt>
<wgt id='1880'> +7.1883276e+04 </wgt>
<wgt id='1881'> +7.1633640e+04 </wgt>
<wgt id='1882'> +7.1600658e+04 </wgt>
<wgt id='1883'> +7.1744749e+04 </wgt>
<wgt id='1884'> +7.1169464e+04 </wgt>
<wgt id='1885'> +7.1229499e+04 </wgt>
<wgt id='1886'> +8.0107144e+04 </wgt>
<wgt id='1887'> +7.8563152e+04 </wgt>
<wgt id='1888'> +6.4189627e+04 </wgt>
<wgt id='1889'> +6.9858324e+04 </wgt>
</rwgt>
</event>
<event npLO=" -1 " npNLO=" 0 ">
 5      1 +7.4519530e+04 2.98453130e+01 7.55820760e-03 1.20189930e-01
       -2 -1    0    0    0  501 +0.0000000000e+00 +0.0000000000e+00 +4.0109081527e+00 4.0109081527e+00 0.0000000000e+00 0.0000e+00 1.0000e+00
        1 -1    0    0  501    0 +0.0000000000e+00 +0.0000000000e+00 -4.0576455722e+02 4.0576455722e+02 0.0000000000e+00 0.0000e+00 -1.0000e+00
      -24  2    1    2    0    0 +0.0000000000e+00 +0.0000000000e+00 -4.0175364906e+02 4.0977546537e+02 8.0684183595e+01 0.0000e+00 0.0000e+00
       11  1    3    3    0    0 +3.5229095457e+01 +1.2033330552e+01 -2.7981748560e+02 2.8228304139e+02 0.0000000000e+00 0.0000e+00 -1.0000e+00
      -12  1    3    3    0    0 -3.5229095457e+01 -1.2033330552e+01 -1.2193616347e+02 1.2749242398e+02 0.0000000000e+00 0.0000e+00 1.0000e+00
#aMCatNLO 1  0  0  2  1 0.11164865E+02 0.00000000E+00 -9  5  0 0.00000000E+00 0.00000000E+00 0.00000000E+00 0.00000000E+00 0.00000000E+00
<rwgt>
<wgt id='1001'> +7.4519530e+04 </wgt>
<wgt id='1002'> +7.3027236e+04 </wgt>
<wgt id='1003'> +7.6378298e+04 </wgt>
<wgt id='1004'> +8.1572194e+04 </wgt>
<wgt id='1005'> +8.0010563e+04 </wgt>
<wgt id='1006'> +8.3517303e+04 </wgt>
<wgt id='1007'> +6.6597842e+04 </wgt>
<wgt id='1008'> +6.5202797e+04 </wgt>
<wgt id='1009'> +6.8335495e+04 </wgt>
<wgt id='1010'> +7.4519530e+04 </wgt>
<wgt id='1011'> +7.4568672e+04 </wgt>
<wgt id='1012'> +7.4383825e+04 </wgt>
<wgt id='1013'> +7.4392129e+04 </wgt>
<wgt id='1014'> +7.4658859e+04 </wgt>
<wgt id='1015'> +7.4386101e+04 </wgt>
<wgt id='1016'> +7.4424742e+04 </wgt>
<wgt id='1017'> +7.4436318e+04 </wgt>
<wgt id='1018'> +7.4087708e+04 </wgt>
<wgt id='1019'> +7.4652688e+04 </wgt>
<wgt id='1020'> +7.4351030e+04 </wgt>
<wgt id='1021'> +7.4617250e+04 </wgt>
<wgt id='1022'> +7.4588254e+04 </wgt>
<wgt id='1023'> +7.4656052e+04 </wgt>
<wgt id='1024'> +7.4613476e+04 </wgt>
<wgt id='1025'> +7.4964545e+04 </wgt>
<wgt id='1026'> +7.4403480e+04 </wgt>
<wgt id='1027'> +7.4629436e+04 </wgt>
<wgt id='1028'> +7.4388002e+04 </wgt>
<wgt id='1029'> +7.4589219e+04 </wgt>
<wgt id='1030'> +7.4490587e+04 </wgt>
<wgt id='1031'> +7.4562064e+04 </wgt>
<wgt id='1032'> +7.4729433e+04 </wgt>
<wgt id='1033'> +7.4421413e+04 </wgt>
<wgt id='1034'> +7.4618863e+04 </wgt>
<wgt id='1035'> +7.4371877e+04 </wgt>
<wgt id='1036'> +7.4341733e+04 </wgt>
<wgt id='1037'> +7.4944893e+04 </wgt>
<wgt id='1038'> +7.4614298e+04 </wgt>
<wgt id='1039'> +7.5007336e+04 </wgt>
<wgt id='1040'> +7.4464809e+04 </wgt>
<wgt id='1041'> +7.5230010e+04 </wgt>
<wgt id='1042'> +7.4514366e+04 </wgt>
<wgt id='1043'> +7.4742992e+04 </wgt>
<wgt id='1044'> +7.4691800e+04 </wgt>
<wgt id='1045'> +7.4414550e+04 </wgt>
<wgt id='1046'> +7.4386906e+04 </wgt>
<wgt id='1047'> +7.4546500e+04 </wgt>
<wgt id='1048'> +7.4531108e+04 </wgt>
<wgt id='1049'> +7.4635946e+04 </wgt>
<wgt id='1050'> +7.4524081e+04 </wgt>
<wgt id='1051'> +7.4735423e+04 </wgt>
<wgt id='1052'> +7.4601237e+04 </wgt>
<wgt id='1053'> +7.4435560e+04 </wgt>
<wgt id='1054'> +7.4262288e+04 </wgt>
<wgt id='1055'> +7.4437313e+04 </wgt>
<wgt id='1056'> +7.4641376e+04 </wgt>
<wgt id='1057'> +7.4338762e+04 </wgt>
<wgt id='1058'> +7.4446958e+04 </wgt>
<wgt id='1059'> +7.4554889e+04 </wgt>
<wgt id='1060'> +7.4441662e+04 </wgt>
<wgt id='1061'> +7.4392167e+04 </wgt>
<wgt id='1062'> +7.4629143e+04 </wgt>
<wgt id='1063'> +7.4734525e+04 </wgt>
<wgt id='1064'> +7.4685604e+04 </wgt>
<wgt id='1065'> +7.4586904e+04 </wgt>
<wgt id='1066'> +7.4493390e+04 </wgt>
<wgt id='1067'> +7.4660766e+04 </wgt>
<wgt id='1068'> +7.4569756e+04 </wgt>
<wgt id='1069'> +7.4574404e+04 </wgt>
<wgt id='1070'> +7.4605903e+04 </wgt>
<wgt id='1071'> +7.4683116e+04 </wgt>
<wgt id='1072'> +7.4576346e+04 </wgt>
<wgt id='1073'> +7.4434591e+04 </wgt>
<wgt id='1074'> +7.4452097e+04 </wgt>
<wgt id='1075'> +7.4678380e+04 </wgt>
<wgt id='1076'> +7.4557756e+04 </wgt>
<wgt id='1077'> +7.4574377e+04 </wgt>
<wgt id='1078'> +7.4518365e+04 </wgt>
<wgt id='1079'> +7.4573781e+04 </wgt>
<wgt id='1080'> +7.4654438e+04 </wgt>
<wgt id='1081'> +7.4540679e+04 </wgt>
<wgt id='1082'> +7.4498893e+04 </wgt>
<wgt id='1083'> +7.4463893e+04 </wgt>
<wgt id='1084'> +7.4491161e+04 </wgt>
<wgt id='1085'> +7.4492468e+04 </wgt>
<wgt id='1086'> +7.4528326e+04 </wgt>
<wgt id='1087'> +7.4537986e+04 </wgt>
<wgt id='1088'> +7.4460172e+04 </wgt>
<wgt id='1089'> +7.4513402e+04 </wgt>
<wgt id='1090'> +7.4493970e+04 </wgt>
<wgt id='1091'> +7.4523426e+04 </wgt>
<wgt id='1092'> +7.4553072e+04 </wgt>
<wgt id='1093'> +7.4527063e+04 </wgt>
<wgt id='1094'> +7.4525260e+04 </wgt>
<wgt id='1095'> +7.4461581e+04 </wgt>
<wgt id='1096'> +7.4510542e+04 </wgt>
<wgt id='1097'> +7.4515092e+04 </wgt>
<wgt id='1098'> +7.4563700e+04 </wgt>
<wgt id='1099'> +7.4566712e+04 </wgt>
<wgt id='1100'> +7.4575393e+04 </wgt>
<wgt id='1101'> +7.4508691e+04 </wgt>
<wgt id='1102'> +7.4486262e+04 </wgt>
<wgt id='1103'> +7.4464260e+04 </wgt>
<wgt id='1104'> +7.4534806e+04 </wgt>
<wgt id='1105'> +7.4502612e+04 </wgt>
<wgt id='1106'> +7.4464714e+04 </wgt>
<wgt id='1107'> +7.4503716e+04 </wgt>
<wgt id='1108'> +7.4566869e+04 </wgt>
<wgt id='1109'> +7.4525909e+04 </wgt>
<wgt id='1110'> +7.4519530e+04 </wgt>
<wgt id='1111'> +7.3582773e+04 </wgt>
<wgt id='1112'> +7.5372737e+04 </wgt>
<wgt id='1113'> +7.4519530e+04 </wgt>
<wgt id='1114'> +7.7797027e+04 </wgt>
<wgt id='1115'> +7.5382217e+04 </wgt>
<wgt id='1116'> +7.3282242e+04 </wgt>
<wgt id='1117'> +7.3021160e+04 </wgt>
<wgt id='1118'> +7.4052206e+04 </wgt>
<wgt id='1119'> +7.5095932e+04 </wgt>
<wgt id='1120'> +7.5788266e+04 </wgt>
<wgt id='1121'> +7.4754180e+04 </wgt>
<wgt id='1122'> +7.4528081e+04 </wgt>
<wgt id='1123'> +7.1600187e+04 </wgt>
<wgt id='1124'> +7.3620909e+04 </wgt>
<wgt id='1125'> +7.3057414e+04 </wgt>
<wgt id='1126'> +7.3514186e+04 </wgt>
<wgt id='1127'> +7.5167395e+04 </wgt>
<wgt id='1128'> +7.5085216e+04 </wgt>
<wgt id='1129'> +7.3762715e+04 </wgt>
<wgt id='1130'> +7.5727082e+04 </wgt>
<wgt id='1131'> +7.4651503e+04 </wgt>
<wgt id='1132'> +7.5332365e+04 </wgt>
<wgt id='1133'> +7.3182591e+04 </wgt>
<wgt id='1134'> +7.4766517e+04 </wgt>
<wgt id='1135'> +7.5659777e+04 </wgt>
<wgt id='1136'> +7.6065981e+04 </wgt>
<wgt id='1137'> +7.3122266e+04 </wgt>
<wgt id='1138'> +7.4759172e+04 </wgt>
<wgt id='1139'> +7.5368158e+04 </wgt>
<wgt id='1140'> +7.6485746e+04 </wgt>
<wgt id='1141'> +7.5333331e+04 </wgt>
<wgt id='1142'> +7.4276643e+04 </wgt>
<wgt id='1143'> +7.7151928e+04 </wgt>
<wgt id='1144'> +7.5640042e+04 </wgt>
<wgt id='1145'> +7.3950483e+04 </wgt>
<wgt id='1146'> +7.5450443e+04 </wgt>
<wgt id='1147'> +7.3107397e+04 </wgt>
<wgt id='1148'> +7.3232206e+04 </wgt>
<wgt id='1149'> +7.4220452e+04 </wgt>
<wgt id='1150'> +7.3250947e+04 </wgt>
<wgt id='1151'> +7.3417308e+04 </wgt>
<wgt id='1152'> +7.3808048e+04 </wgt>
<wgt id='1153'> +7.3565929e+04 </wgt>
<wgt id='1154'> +7.4922749e+04 </wgt>
<wgt id='1155'> +7.5870441e+04 </wgt>
<wgt id='1156'> +7.5279196e+04 </wgt>
<wgt id='1157'> +7.4910635e+04 </wgt>
<wgt id='1158'> +7.3617559e+04 </wgt>
<wgt id='1159'> +7.3270466e+04 </wgt>
<wgt id='1160'> +7.4726477e+04 </wgt>
<wgt id='1161'> +7.6569212e+04 </wgt>
<wgt id='1162'> +7.6789398e+04 </wgt>
<wgt id='1163'> +7.3937038e+04 </wgt>
<wgt id='1164'> +7.4997311e+04 </wgt>
<wgt id='1165'> +7.4818268e+04 </wgt>
<wgt id='1166'> +7.5757692e+04 </wgt>
<wgt id='1167'> +7.5857519e+04 </wgt>
<wgt id='1168'> +7.5190339e+04 </wgt>
<wgt id='1169'> +7.4937216e+04 </wgt>
<wgt id='1170'> +7.6357614e+04 </wgt>
<wgt id='1171'> +7.5788512e+04 </wgt>
<wgt id='1172'> +7.5662100e+04 </wgt>
<wgt id='1173'> +7.5939316e+04 </wgt>
<wgt id='1174'> +7.3852036e+04 </wgt>
<wgt id='1175'> +7.4062616e+04 </wgt>
<wgt id='1176'> +7.4139618e+04 </wgt>
<wgt id='1177'> +7.4076246e+04 </wgt>
<wgt id='1178'> +7.4714251e+04 </wgt>
<wgt id='1179'> +7.5856962e+04 </wgt>
<wgt id='1180'> +7.3699406e+04 </wgt>
<wgt id='1181'> +7.5110195e+04 </wgt>
<wgt id='1182'> +7.4097743e+04 </wgt>
<wgt id='1183'> +7.4651590e+04 </wgt>
<wgt id='1184'> +7.5176934e+04 </wgt>
<wgt id='1185'> +7.5611012e+04 </wgt>
<wgt id='1186'> +7.1629380e+04 </wgt>
<wgt id='1187'> +7.2108944e+04 </wgt>
<wgt id='1188'> +7.3141419e+04 </wgt>
<wgt id='1189'> +7.5334647e+04 </wgt>
<wgt id='1190'> +7.2474012e+04 </wgt>
<wgt id='1191'> +7.6188992e+04 </wgt>
<wgt id='1192'> +7.3420260e+04 </wgt>
<wgt id='1193'> +7.2990292e+04 </wgt>
<wgt id='1194'> +7.4767595e+04 </wgt>
<wgt id='1195'> +7.3762715e+04 </wgt>
<wgt id='1196'> +7.0961995e+04 </wgt>
<wgt id='1197'> +7.4090231e+04 </wgt>
<wgt id='1198'> +7.3725134e+04 </wgt>
<wgt id='1199'> +7.8589221e+04 </wgt>
<wgt id='1200'> +7.4060576e+04 </wgt>
<wgt id='1201'> +7.5061178e+04 </wgt>
<wgt id='1202'> +6.6953693e+04 </wgt>
<wgt id='1203'> +7.3482140e+04 </wgt>
<wgt id='1204'> +7.5859058e+04 </wgt>
<wgt id='1205'> +7.3703141e+04 </wgt>
<wgt id='1206'> +7.4446235e+04 </wgt>
<wgt id='1207'> +7.6078484e+04 </wgt>
<wgt id='1208'> +7.4255043e+04 </wgt>
<wgt id='1209'> +7.5984149e+04 </wgt>
<wgt id='1210'> +7.4145753e+04 </wgt>
<wgt id='1211'> +7.3901457e+04 </wgt>
<wgt id='1212'> +7.4249817e+04 </wgt>
<wgt id='1213'> +7.5156217e+04 </wgt>
<wgt id='1214'> +7.4481528e+04 </wgt>
<wgt id='1215'> +7.1021579e+04 </wgt>
<wgt id='1216'> +7.1549168e+04 </wgt>
<wgt id='1217'> +7.2114242e+04 </wgt>
<wgt id='1218'> +7.3196868e+04 </wgt>
<wgt id='1219'> +7.4403158e+04 </wgt>
<wgt id='1220'> +7.4990160e+04 </wgt>
<wgt id='1221'> +7.6029452e+04 </wgt>
<wgt id='1222'> +7.6482409e+04 </wgt>
<wgt id='1223'> +7.3310371e+04 </wgt>
<wgt id='1224'> +7.3179678e+04 </wgt>
<wgt id='1225'> +7.3508996e+04 </wgt>
<wgt id='1226'> +7.3160224e+04 </wgt>
<wgt id='1227'> +7.3670965e+04 </wgt>
<wgt id='1228'> +7.3238860e+04 </wgt>
<wgt id='1229'> +7.3061217e+04 </wgt>
<wgt id='1230'> +7.3290620e+04 </wgt>
<wgt id='1231'> +7.3307881e+04 </wgt>
<wgt id='1232'> +7.3458707e+04 </wgt>
<wgt id='1233'> +7.3041924e+04 </wgt>
<wgt id='1234'> +7.3142352e+04 </wgt>
<wgt id='1235'> +7.3366094e+04 </wgt>
<wgt id='1236'> +7.3479452e+04 </wgt>
<wgt id='1237'> +7.3452787e+04 </wgt>
<wgt id='1238'> +7.3078966e+04 </wgt>
<wgt id='1239'> +7.3341123e+04 </wgt>
<wgt id='1240'> +7.3277796e+04 </wgt>
<wgt id='1241'> +7.3475724e+04 </wgt>
<wgt id='1242'> +7.3381715e+04 </wgt>
<wgt id='1243'> +7.3193173e+04 </wgt>
<wgt id='1244'> +7.3521343e+04 </wgt>
<wgt id='1245'> +7.3364701e+04 </wgt>
<wgt id='1246'> +7.3411821e+04 </wgt>
<wgt id='1247'> +7.3598422e+04 </wgt>
<wgt id='1248'> +7.3046473e+04 </wgt>
<wgt id='1249'> +7.3277946e+04 </wgt>
<wgt id='1250'> +7.3275279e+04 </wgt>
<wgt id='1251'> +7.3421818e+04 </wgt>
<wgt id='1252'> +7.3850758e+04 </wgt>
<wgt id='1253'> +7.2716564e+04 </wgt>
<wgt id='1254'> +7.2916160e+04 </wgt>
<wgt id='1255'> +7.3512881e+04 </wgt>
<wgt id='1256'> +7.3317048e+04 </wgt>
<wgt id='1257'> +7.3258153e+04 </wgt>
<wgt id='1258'> +7.3525500e+04 </wgt>
<wgt id='1259'> +7.3394577e+04 </wgt>
<wgt id='1260'> +7.3103215e+04 </wgt>
<wgt id='1261'> +7.3326216e+04 </wgt>
<wgt id='1262'> +7.3375999e+04 </wgt>
<wgt id='1263'> +7.3239135e+04 </wgt>
<wgt id='1264'> +7.3591137e+04 </wgt>
<wgt id='1265'> +7.3252704e+04 </wgt>
<wgt id='1266'> +7.3212798e+04 </wgt>
<wgt id='1267'> +7.3330635e+04 </wgt>
<wgt id='1268'> +7.3226094e+04 </wgt>
<wgt id='1269'> +7.3405302e+04 </wgt>
<wgt id='1270'> +7.3486636e+04 </wgt>
<wgt id='1271'> +7.3393576e+04 </wgt>
<wgt id='1272'> +7.3147005e+04 </wgt>
<wgt id='1273'> +7.3319795e+04 </wgt>
<wgt id='1274'> +7.3427157e+04 </wgt>
<wgt id='1275'> +7.3357939e+04 </wgt>
<wgt id='1276'> +7.3207406e+04 </wgt>
<wgt id='1277'> +7.3226184e+04 </wgt>
<wgt id='1278'> +7.3363608e+04 </wgt>
<wgt id='1279'> +7.2987694e+04 </wgt>
<wgt id='1280'> +7.3322530e+04 </wgt>
<wgt id='1281'> +7.3217107e+04 </wgt>
<wgt id='1282'> +7.3421534e+04 </wgt>
<wgt id='1283'> +7.3290700e+04 </wgt>
<wgt id='1284'> +7.3330804e+04 </wgt>
<wgt id='1285'> +7.3272758e+04 </wgt>
<wgt id='1286'> +7.3378308e+04 </wgt>
<wgt id='1287'> +7.3232825e+04 </wgt>
<wgt id='1288'> +7.3332437e+04 </wgt>
<wgt id='1289'> +7.3450933e+04 </wgt>
<wgt id='1290'> +7.3248663e+04 </wgt>
<wgt id='1291'> +7.3348412e+04 </wgt>
<wgt id='1292'> +7.3336778e+04 </wgt>
<wgt id='1293'> +7.3274523e+04 </wgt>
<wgt id='1294'> +7.3285182e+04 </wgt>
<wgt id='1295'> +7.3284036e+04 </wgt>
<wgt id='1296'> +7.3235723e+04 </wgt>
<wgt id='1297'> +7.3351722e+04 </wgt>
<wgt id='1298'> +7.3399240e+04 </wgt>
<wgt id='1299'> +7.3380844e+04 </wgt>
<wgt id='1300'> +7.3274448e+04 </wgt>
<wgt id='1301'> +7.3351304e+04 </wgt>
<wgt id='1302'> +7.3341360e+04 </wgt>
<wgt id='1303'> +7.3332771e+04 </wgt>
<wgt id='1304'> +7.3233276e+04 </wgt>
<wgt id='1305'> +7.3257249e+04 </wgt>
<wgt id='1306'> +7.3244434e+04 </wgt>
<wgt id='1307'> +7.3363081e+04 </wgt>
<wgt id='1308'> +7.3243530e+04 </wgt>
<wgt id='1309'> +7.3319716e+04 </wgt>
<wgt id='1310'> +7.3259263e+04 </wgt>
<wgt id='1311'> +7.3307446e+04 </wgt>
<wgt id='1312'> +7.3298158e+04 </wgt>
<wgt id='1313'> +7.3363156e+04 </wgt>
<wgt id='1314'> +7.3337317e+04 </wgt>
<wgt id='1315'> +7.3282494e+04 </wgt>
<wgt id='1316'> +7.3296352e+04 </wgt>
<wgt id='1317'> +7.3298852e+04 </wgt>
<wgt id='1318'> +7.3305644e+04 </wgt>
<wgt id='1319'> +7.3308699e+04 </wgt>
<wgt id='1320'> +7.3232318e+04 </wgt>
<wgt id='1321'> +7.3308510e+04 </wgt>
<wgt id='1322'> +7.3336103e+04 </wgt>
<wgt id='1323'> +7.3366925e+04 </wgt>
<wgt id='1324'> +7.2620920e+04 </wgt>
<wgt id='1325'> +7.4253855e+04 </wgt>
<wgt id='1326'> +7.2892406e+04 </wgt>
<wgt id='1327'> +6.9459696e+04 </wgt>
<wgt id='1328'> +7.2598438e+04 </wgt>
<wgt id='1329'> +7.2453987e+04 </wgt>
<wgt id='1330'> +7.3506983e+04 </wgt>
<wgt id='1331'> +7.2087759e+04 </wgt>
<wgt id='1332'> +7.4589439e+04 </wgt>
<wgt id='1333'> +7.3518686e+04 </wgt>
<wgt id='1334'> +7.0870077e+04 </wgt>
<wgt id='1335'> +7.0151832e+04 </wgt>
<wgt id='1336'> +7.2970826e+04 </wgt>
<wgt id='1337'> +7.3379361e+04 </wgt>
<wgt id='1338'> +7.2143601e+04 </wgt>
<wgt id='1339'> +7.3001772e+04 </wgt>
<wgt id='1340'> +7.1855831e+04 </wgt>
<wgt id='1341'> +7.1150018e+04 </wgt>
<wgt id='1342'> +7.4507800e+04 </wgt>
<wgt id='1343'> +7.2450398e+04 </wgt>
<wgt id='1344'> +7.1284867e+04 </wgt>
<wgt id='1345'> +7.4320470e+04 </wgt>
<wgt id='1346'> +7.2658065e+04 </wgt>
<wgt id='1347'> +7.3745788e+04 </wgt>
<wgt id='1348'> +7.0490242e+04 </wgt>
<wgt id='1349'> +7.3163474e+04 </wgt>
<wgt id='1350'> +7.3042142e+04 </wgt>
<wgt id='1351'> +7.1734288e+04 </wgt>
<wgt id='1352'> +7.3644697e+04 </wgt>
<wgt id='1353'> +7.4148320e+04 </wgt>
<wgt id='1354'> +7.1935465e+04 </wgt>
<wgt id='1355'> +7.3914472e+04 </wgt>
<wgt id='1356'> +7.3861332e+04 </wgt>
<wgt id='1357'> +7.1956143e+04 </wgt>
<wgt id='1358'> +7.2250091e+04 </wgt>
<wgt id='1359'> +7.2669206e+04 </wgt>
<wgt id='1360'> +7.4300603e+04 </wgt>
<wgt id='1361'> +7.4920793e+04 </wgt>
<wgt id='1362'> +7.2320938e+04 </wgt>
<wgt id='1363'> +7.0806900e+04 </wgt>
<wgt id='1364'> +7.2194474e+04 </wgt>
<wgt id='1365'> +7.2150025e+04 </wgt>
<wgt id='1366'> +7.2672723e+04 </wgt>
<wgt id='1367'> +7.4106144e+04 </wgt>
<wgt id='1368'> +7.2425298e+04 </wgt>
<wgt id='1369'> +7.3009382e+04 </wgt>
<wgt id='1370'> +7.0628631e+04 </wgt>
<wgt id='1371'> +7.2330561e+04 </wgt>
<wgt id='1372'> +7.4165162e+04 </wgt>
<wgt id='1373'> +7.2212030e+04 </wgt>
<wgt id='1374'> +7.3210021e+04 </wgt>
<wgt id='1375'> +7.3239222e+04 </wgt>
<wgt id='1376'> +7.1159290e+04 </wgt>
<wgt id='1377'> +7.3531700e+04 </wgt>
<wgt id='1378'> +7.2158938e+04 </wgt>
<wgt id='1379'> +7.3166628e+04 </wgt>
<wgt id='1380'> +7.1303463e+04 </wgt>
<wgt id='1381'> +7.2982215e+04 </wgt>
<wgt id='1382'> +7.0715378e+04 </wgt>
<wgt id='1383'> +7.1745555e+04 </wgt>
<wgt id='1384'> +7.2725167e+04 </wgt>
<wgt id='1385'> +6.6965783e+04 </wgt>
<wgt id='1386'> +7.3978511e+04 </wgt>
<wgt id='1387'> +7.3880573e+04 </wgt>
<wgt id='1388'> +7.3758513e+04 </wgt>
<wgt id='1389'> +7.2152168e+04 </wgt>
<wgt id='1390'> +6.8519690e+04 </wgt>
<wgt id='1391'> +7.1901053e+04 </wgt>
<wgt id='1392'> +7.1332505e+04 </wgt>
<wgt id='1393'> +7.1318045e+04 </wgt>
<wgt id='1394'> +7.2150025e+04 </wgt>
<wgt id='1395'> +7.2854903e+04 </wgt>
<wgt id='1396'> +7.3455116e+04 </wgt>
<wgt id='1397'> +7.3037493e+04 </wgt>
<wgt id='1398'> +7.4467443e+04 </wgt>
<wgt id='1399'> +7.2414779e+04 </wgt>
<wgt id='1400'> +7.3302297e+04 </wgt>
<wgt id='1401'> +7.1768508e+04 </wgt>
<wgt id='1402'> +7.2818988e+04 </wgt>
<wgt id='1403'> +7.4651228e+04 </wgt>
<wgt id='1404'> +7.3742728e+04 </wgt>
<wgt id='1405'> +6.9854063e+04 </wgt>
<wgt id='1406'> +7.2093591e+04 </wgt>
<wgt id='1407'> +7.3985781e+04 </wgt>
<wgt id='1408'> +7.4818465e+04 </wgt>
<wgt id='1409'> +7.2630580e+04 </wgt>
<wgt id='1410'> +7.3326442e+04 </wgt>
<wgt id='1411'> +7.2784712e+04 </wgt>
<wgt id='1412'> +7.3331429e+04 </wgt>
<wgt id='1413'> +7.2912565e+04 </wgt>
<wgt id='1414'> +7.0278504e+04 </wgt>
<wgt id='1415'> +7.0429628e+04 </wgt>
<wgt id='1416'> +7.2660213e+04 </wgt>
<wgt id='1417'> +7.1907439e+04 </wgt>
<wgt id='1418'> +7.5352964e+04 </wgt>
<wgt id='1419'> +7.2468052e+04 </wgt>
<wgt id='1420'> +7.0907723e+04 </wgt>
<wgt id='1421'> +7.2088569e+04 </wgt>
<wgt id='1422'> +7.2702937e+04 </wgt>
<wgt id='1423'> +7.2974931e+04 </wgt>
<wgt id='1424'> +7.2935120e+04 </wgt>
<wgt id='1425'> +7.3057788e+04 </wgt>
<wgt id='1426'> +7.2535930e+04 </wgt>
<wgt id='1427'> +7.2954000e+04 </wgt>
<wgt id='1428'> +7.4755168e+04 </wgt>
<wgt id='1429'> +7.2570827e+04 </wgt>
<wgt id='1430'> +7.2724921e+04 </wgt>
<wgt id='1431'> +7.2631744e+04 </wgt>
<wgt id='1432'> +7.3009778e+04 </wgt>
<wgt id='1433'> +7.2584569e+04 </wgt>
<wgt id='1434'> +7.2555120e+04 </wgt>
<wgt id='1435'> +7.2382845e+04 </wgt>
<wgt id='1436'> +7.2104671e+04 </wgt>
<wgt id='1437'> +7.2901442e+04 </wgt>
<wgt id='1438'> +7.2734570e+04 </wgt>
<wgt id='1439'> +7.2099122e+04 </wgt>
<wgt id='1440'> +7.2552112e+04 </wgt>
<wgt id='1441'> +7.2469462e+04 </wgt>
<wgt id='1442'> +7.2430984e+04 </wgt>
<wgt id='1443'> +7.2611452e+04 </wgt>
<wgt id='1444'> +7.2286544e+04 </wgt>
<wgt id='1445'> +7.2068356e+04 </wgt>
<wgt id='1446'> +7.2797041e+04 </wgt>
<wgt id='1447'> +7.2496564e+04 </wgt>
<wgt id='1448'> +7.2774676e+04 </wgt>
<wgt id='1449'> +7.2579022e+04 </wgt>
<wgt id='1450'> +7.2463215e+04 </wgt>
<wgt id='1451'> +7.2627027e+04 </wgt>
<wgt id='1452'> +7.2646362e+04 </wgt>
<wgt id='1453'> +7.2578220e+04 </wgt>
<wgt id='1454'> +7.2646790e+04 </wgt>
<wgt id='1455'> +7.2420492e+04 </wgt>
<wgt id='1456'> +7.2636622e+04 </wgt>
<wgt id='1457'> +7.2521659e+04 </wgt>
<wgt id='1458'> +7.2648481e+04 </wgt>
<wgt id='1459'> +7.2709817e+04 </wgt>
<wgt id='1460'> +7.2486211e+04 </wgt>
<wgt id='1461'> +7.2629114e+04 </wgt>
<wgt id='1462'> +7.2512603e+04 </wgt>
<wgt id='1463'> +7.2620331e+04 </wgt>
<wgt id='1464'> +7.2593716e+04 </wgt>
<wgt id='1465'> +7.2665034e+04 </wgt>
<wgt id='1466'> +7.2608883e+04 </wgt>
<wgt id='1467'> +7.2555741e+04 </wgt>
<wgt id='1468'> +7.2588427e+04 </wgt>
<wgt id='1469'> +7.2639302e+04 </wgt>
<wgt id='1470'> +7.2609900e+04 </wgt>
<wgt id='1471'> +7.2626784e+04 </wgt>
<wgt id='1472'> +7.2566446e+04 </wgt>
<wgt id='1473'> +7.2668494e+04 </wgt>
<wgt id='1474'> +7.2645801e+04 </wgt>
<wgt id='1475'> +7.2660112e+04 </wgt>
<wgt id='1476'> +7.2644263e+04 </wgt>
<wgt id='1477'> +7.2673599e+04 </wgt>
<wgt id='1478'> +7.2696088e+04 </wgt>
<wgt id='1479'> +7.2651682e+04 </wgt>
<wgt id='1480'> +7.2601019e+04 </wgt>
<wgt id='1481'> +7.2642385e+04 </wgt>
<wgt id='1482'> +7.2570827e+04 </wgt>
<wgt id='1483'> +7.2724921e+04 </wgt>
<wgt id='1484'> +7.4812262e+04 </wgt>
<wgt id='1485'> +7.4459026e+04 </wgt>
<wgt id='1486'> +7.5455162e+04 </wgt>
<wgt id='1487'> +7.3385054e+04 </wgt>
<wgt id='1488'> +7.4981342e+04 </wgt>
<wgt id='1489'> +7.4821951e+04 </wgt>
<wgt id='1490'> +7.1954725e+04 </wgt>
<wgt id='1491'> +7.4158957e+04 </wgt>
<wgt id='1492'> +7.2999882e+04 </wgt>
<wgt id='1493'> +7.5136109e+04 </wgt>
<wgt id='1494'> +7.5505643e+04 </wgt>
<wgt id='1495'> +7.1634979e+04 </wgt>
<wgt id='1496'> +7.2358518e+04 </wgt>
<wgt id='1497'> +7.2766662e+04 </wgt>
<wgt id='1498'> +7.6689686e+04 </wgt>
<wgt id='1499'> +7.6092287e+04 </wgt>
<wgt id='1500'> +7.3304005e+04 </wgt>
<wgt id='1501'> +7.4165661e+04 </wgt>
<wgt id='1502'> +7.5116826e+04 </wgt>
<wgt id='1503'> +7.4418618e+04 </wgt>
<wgt id='1504'> +7.5460004e+04 </wgt>
<wgt id='1505'> +7.5545557e+04 </wgt>
<wgt id='1506'> +7.4880991e+04 </wgt>
<wgt id='1507'> +7.3891436e+04 </wgt>
<wgt id='1508'> +7.3005593e+04 </wgt>
<wgt id='1509'> +7.6457430e+04 </wgt>
<wgt id='1510'> +7.7408461e+04 </wgt>
<wgt id='1511'> +7.5744240e+04 </wgt>
<wgt id='1512'> +7.4841962e+04 </wgt>
<wgt id='1513'> +7.4129487e+04 </wgt>
<wgt id='1514'> +7.4263535e+04 </wgt>
<wgt id='1515'> +7.4849602e+04 </wgt>
<wgt id='1516'> +7.4915417e+04 </wgt>
<wgt id='1517'> +7.5735590e+04 </wgt>
<wgt id='1518'> +7.4890998e+04 </wgt>
<wgt id='1519'> +7.4475464e+04 </wgt>
<wgt id='1520'> +7.6087209e+04 </wgt>
<wgt id='1521'> +7.3885140e+04 </wgt>
<wgt id='1522'> +7.6462944e+04 </wgt>
<wgt id='1523'> +7.5400633e+04 </wgt>
<wgt id='1524'> +7.5783694e+04 </wgt>
<wgt id='1525'> +7.4364657e+04 </wgt>
<wgt id='1526'> +7.3959376e+04 </wgt>
<wgt id='1527'> +7.5271999e+04 </wgt>
<wgt id='1528'> +7.4971262e+04 </wgt>
<wgt id='1529'> +7.5269526e+04 </wgt>
<wgt id='1530'> +7.4966261e+04 </wgt>
<wgt id='1531'> +7.5044677e+04 </wgt>
<wgt id='1532'> +7.5194310e+04 </wgt>
<wgt id='1533'> +7.6772129e+04 </wgt>
<wgt id='1534'> +7.5176214e+04 </wgt>
<wgt id='1535'> +7.5504647e+04 </wgt>
<wgt id='1536'> +7.3803810e+04 </wgt>
<wgt id='1537'> +7.5450109e+04 </wgt>
<wgt id='1538'> +7.4532990e+04 </wgt>
<wgt id='1539'> +7.5308383e+04 </wgt>
<wgt id='1540'> +7.6036779e+04 </wgt>
<wgt id='1541'> +7.5248484e+04 </wgt>
<wgt id='1542'> +7.5039709e+04 </wgt>
<wgt id='1543'> +7.5782394e+04 </wgt>
<wgt id='1544'> +7.5086951e+04 </wgt>
<wgt id='1545'> +7.5391040e+04 </wgt>
<wgt id='1546'> +7.4195158e+04 </wgt>
<wgt id='1547'> +7.5005590e+04 </wgt>
<wgt id='1548'> +7.5384623e+04 </wgt>
<wgt id='1549'> +7.6445760e+04 </wgt>
<wgt id='1550'> +7.6901792e+04 </wgt>
<wgt id='1551'> +7.6052350e+04 </wgt>
<wgt id='1552'> +7.4922335e+04 </wgt>
<wgt id='1553'> +7.6739516e+04 </wgt>
<wgt id='1554'> +7.5023103e+04 </wgt>
<wgt id='1555'> +7.3264125e+04 </wgt>
<wgt id='1556'> +7.2373198e+04 </wgt>
<wgt id='1557'> +7.5061268e+04 </wgt>
<wgt id='1558'> +7.4617573e+04 </wgt>
<wgt id='1559'> +7.5884193e+04 </wgt>
<wgt id='1560'> +7.5681550e+04 </wgt>
<wgt id='1561'> +7.6040335e+04 </wgt>
<wgt id='1562'> +7.5138020e+04 </wgt>
<wgt id='1563'> +7.4622691e+04 </wgt>
<wgt id='1564'> +7.4377870e+04 </wgt>
<wgt id='1565'> +7.4910465e+04 </wgt>
<wgt id='1566'> +7.4167525e+04 </wgt>
<wgt id='1567'> +7.4694306e+04 </wgt>
<wgt id='1568'> +7.4863589e+04 </wgt>
<wgt id='1569'> +7.4706778e+04 </wgt>
<wgt id='1570'> +7.5590356e+04 </wgt>
<wgt id='1571'> +7.3882324e+04 </wgt>
<wgt id='1572'> +7.3477189e+04 </wgt>
<wgt id='1573'> +7.4538203e+04 </wgt>
<wgt id='1574'> +7.2863412e+04 </wgt>
<wgt id='1575'> +7.3201254e+04 </wgt>
<wgt id='1576'> +7.4756791e+04 </wgt>
<wgt id='1577'> +7.2051749e+04 </wgt>
<wgt id='1578'> +7.6226084e+04 </wgt>
<wgt id='1579'> +7.3361140e+04 </wgt>
<wgt id='1580'> +7.5491213e+04 </wgt>
<wgt id='1581'> +7.6438422e+04 </wgt>
<wgt id='1582'> +7.4692576e+04 </wgt>
<wgt id='1583'> +7.5079650e+04 </wgt>
<wgt id='1584'> +7.2955391e+04 </wgt>
<wgt id='1585'> +7.2737011e+04 </wgt>
<wgt id='1586'> +6.3556238e+04 </wgt>
<wgt id='1587'> +7.2593386e+04 </wgt>
<wgt id='1588'> +7.2570827e+04 </wgt>
<wgt id='1589'> +7.2399840e+04 </wgt>
<wgt id='1590'> +7.2424267e+04 </wgt>
<wgt id='1591'> +7.2724921e+04 </wgt>
<wgt id='1592'> +7.2483912e+04 </wgt>
<wgt id='1593'> +7.6284675e+04 </wgt>
<wgt id='1594'> +7.5790626e+04 </wgt>
<wgt id='1595'> +7.5414437e+04 </wgt>
<wgt id='1596'> +7.5853519e+04 </wgt>
<wgt id='1597'> +7.6791979e+04 </wgt>
<wgt id='1598'> +7.4727263e+04 </wgt>
<wgt id='1599'> +7.7558146e+04 </wgt>
<wgt id='1600'> +7.4911702e+04 </wgt>
<wgt id='1601'> +7.7721118e+04 </wgt>
<wgt id='1602'> +7.5678795e+04 </wgt>
<wgt id='1603'> +7.7022163e+04 </wgt>
<wgt id='1604'> +7.7881525e+04 </wgt>
<wgt id='1605'> +7.5484739e+04 </wgt>
<wgt id='1606'> +7.5158051e+04 </wgt>
<wgt id='1607'> +7.7136497e+04 </wgt>
<wgt id='1608'> +7.5392189e+04 </wgt>
<wgt id='1609'> +7.6507313e+04 </wgt>
<wgt id='1610'> +7.6727171e+04 </wgt>
<wgt id='1611'> +7.5668957e+04 </wgt>
<wgt id='1612'> +7.7470318e+04 </wgt>
<wgt id='1613'> +7.4331996e+04 </wgt>
<wgt id='1614'> +7.6450546e+04 </wgt>
<wgt id='1615'> +7.6099845e+04 </wgt>
<wgt id='1616'> +7.6119470e+04 </wgt>
<wgt id='1617'> +7.5881891e+04 </wgt>
<wgt id='1618'> +7.6192527e+04 </wgt>
<wgt id='1619'> +7.6626758e+04 </wgt>
<wgt id='1620'> +7.6214082e+04 </wgt>
<wgt id='1621'> +7.6259834e+04 </wgt>
<wgt id='1622'> +7.6023061e+04 </wgt>
<wgt id='1623'> +7.5670967e+04 </wgt>
<wgt id='1624'> +7.6786693e+04 </wgt>
<wgt id='1625'> +7.5277635e+04 </wgt>
<wgt id='1626'> +7.5394437e+04 </wgt>
<wgt id='1627'> +7.6946182e+04 </wgt>
<wgt id='1628'> +7.6459690e+04 </wgt>
<wgt id='1629'> +7.6368748e+04 </wgt>
<wgt id='1630'> +7.6147536e+04 </wgt>
<wgt id='1631'> +7.5849675e+04 </wgt>
<wgt id='1632'> +7.6480172e+04 </wgt>
<wgt id='1633'> +7.5872434e+04 </wgt>
<wgt id='1634'> +7.6878012e+04 </wgt>
<wgt id='1635'> +7.5722820e+04 </wgt>
<wgt id='1636'> +7.5796816e+04 </wgt>
<wgt id='1637'> +7.6963351e+04 </wgt>
<wgt id='1638'> +7.6519815e+04 </wgt>
<wgt id='1639'> +7.6171380e+04 </wgt>
<wgt id='1640'> +7.7097239e+04 </wgt>
<wgt id='1641'> +7.5502755e+04 </wgt>
<wgt id='1642'> +7.6000690e+04 </wgt>
<wgt id='1643'> +7.6439437e+04 </wgt>
<wgt id='1644'> +7.7441385e+04 </wgt>
<wgt id='1645'> +7.4870844e+04 </wgt>
<wgt id='1646'> +7.6186590e+04 </wgt>
<wgt id='1647'> +7.6989951e+04 </wgt>
<wgt id='1648'> +7.6285415e+04 </wgt>
<wgt id='1649'> +7.6671636e+04 </wgt>
<wgt id='1650'> +7.7044916e+04 </wgt>
<wgt id='1651'> +7.5230757e+04 </wgt>
<wgt id='1652'> +7.5817641e+04 </wgt>
<wgt id='1653'> +7.6050011e+04 </wgt>
<wgt id='1654'> +7.6526212e+04 </wgt>
<wgt id='1655'> +7.6779534e+04 </wgt>
<wgt id='1656'> +7.7247256e+04 </wgt>
<wgt id='1657'> +7.6601269e+04 </wgt>
<wgt id='1658'> +7.6825019e+04 </wgt>
<wgt id='1659'> +7.8226907e+04 </wgt>
<wgt id='1660'> +7.7635314e+04 </wgt>
<wgt id='1661'> +7.7495474e+04 </wgt>
<wgt id='1662'> +7.6643955e+04 </wgt>
<wgt id='1663'> +7.6890393e+04 </wgt>
<wgt id='1664'> +7.6720766e+04 </wgt>
<wgt id='1665'> +7.6809554e+04 </wgt>
<wgt id='1666'> +7.7882739e+04 </wgt>
<wgt id='1667'> +7.6963660e+04 </wgt>
<wgt id='1668'> +7.7676354e+04 </wgt>
<wgt id='1669'> +7.7852882e+04 </wgt>
<wgt id='1670'> +7.6798331e+04 </wgt>
<wgt id='1671'> +7.8165503e+04 </wgt>
<wgt id='1672'> +7.6512722e+04 </wgt>
<wgt id='1673'> +7.8321934e+04 </wgt>
<wgt id='1674'> +7.7204245e+04 </wgt>
<wgt id='1675'> +7.8004355e+04 </wgt>
<wgt id='1676'> +7.6673561e+04 </wgt>
<wgt id='1677'> +7.7113789e+04 </wgt>
<wgt id='1678'> +7.8029467e+04 </wgt>
<wgt id='1679'> +7.6738831e+04 </wgt>
<wgt id='1680'> +7.8313859e+04 </wgt>
<wgt id='1681'> +7.7352098e+04 </wgt>
<wgt id='1682'> +7.6705791e+04 </wgt>
<wgt id='1683'> +7.7191926e+04 </wgt>
<wgt id='1684'> +7.7232404e+04 </wgt>
<wgt id='1685'> +7.7856839e+04 </wgt>
<wgt id='1686'> +7.6314210e+04 </wgt>
<wgt id='1687'> +7.7682051e+04 </wgt>
<wgt id='1688'> +7.6365570e+04 </wgt>
<wgt id='1689'> +7.6908663e+04 </wgt>
<wgt id='1690'> +7.8636015e+04 </wgt>
<wgt id='1691'> +7.7572599e+04 </wgt>
<wgt id='1692'> +7.7061339e+04 </wgt>
<wgt id='1693'> +7.8080915e+04 </wgt>
<wgt id='1694'> +7.6987501e+04 </wgt>
<wgt id='1695'> +7.6871413e+04 </wgt>
<wgt id='1696'> +7.7326271e+04 </wgt>
<wgt id='1697'> +7.7999520e+04 </wgt>
<wgt id='1698'> +7.6526951e+04 </wgt>
<wgt id='1699'> +7.6065373e+04 </wgt>
<wgt id='1700'> +7.8624249e+04 </wgt>
<wgt id='1701'> +7.5691456e+04 </wgt>
<wgt id='1702'> +7.9026951e+04 </wgt>
<wgt id='1703'> +7.7206356e+04 </wgt>
<wgt id='1704'> +7.7911403e+04 </wgt>
<wgt id='1705'> +7.7201242e+04 </wgt>
<wgt id='1706'> +7.7599095e+04 </wgt>
<wgt id='1707'> +7.6077931e+04 </wgt>
<wgt id='1708'> +7.8146692e+04 </wgt>
<wgt id='1709'> +7.6924459e+04 </wgt>
<wgt id='1710'> +7.7729340e+04 </wgt>
<wgt id='1711'> +7.7059219e+04 </wgt>
<wgt id='1712'> +7.7084518e+04 </wgt>
<wgt id='1713'> +7.7561537e+04 </wgt>
<wgt id='1714'> +7.6660672e+04 </wgt>
<wgt id='1715'> +7.4897461e+04 </wgt>
<wgt id='1716'> +7.7255714e+04 </wgt>
<wgt id='1717'> +7.2214421e+04 </wgt>
<wgt id='1718'> +7.2256281e+04 </wgt>
<wgt id='1719'> +7.2159237e+04 </wgt>
<wgt id='1720'> +7.2202055e+04 </wgt>
<wgt id='1721'> +7.2225713e+04 </wgt>
<wgt id='1722'> +7.2208595e+04 </wgt>
<wgt id='1723'> +7.2223651e+04 </wgt>
<wgt id='1724'> +7.2406369e+04 </wgt>
<wgt id='1725'> +7.2058438e+04 </wgt>
<wgt id='1726'> +7.2085791e+04 </wgt>
<wgt id='1727'> +7.2346764e+04 </wgt>
<wgt id='1728'> +7.1269335e+04 </wgt>
<wgt id='1729'> +7.3135802e+04 </wgt>
<wgt id='1730'> +7.2389512e+04 </wgt>
<wgt id='1731'> +7.2089604e+04 </wgt>
<wgt id='1732'> +7.2598533e+04 </wgt>
<wgt id='1733'> +7.2598533e+04 </wgt>
<wgt id='1734'> +7.1865427e+04 </wgt>
<wgt id='1735'> +7.2448248e+04 </wgt>
<wgt id='1736'> +7.1938833e+04 </wgt>
<wgt id='1737'> +7.2597344e+04 </wgt>
<wgt id='1738'> +7.2429691e+04 </wgt>
<wgt id='1739'> +7.1787506e+04 </wgt>
<wgt id='1740'> +7.2206123e+04 </wgt>
<wgt id='1741'> +7.2227346e+04 </wgt>
<wgt id='1742'> +7.1926628e+04 </wgt>
<wgt id='1743'> +7.2539816e+04 </wgt>
<wgt id='1744'> +7.2329661e+04 </wgt>
<wgt id='1745'> +7.1899709e+04 </wgt>
<wgt id='1746'> +7.2004306e+04 </wgt>
<wgt id='1747'> +7.2307608e+04 </wgt>
<wgt id='1748'> +7.2449239e+04 </wgt>
<wgt id='1749'> +7.1435761e+04 </wgt>
<wgt id='1750'> +7.2372577e+04 </wgt>
<wgt id='1751'> +7.2046542e+04 </wgt>
<wgt id='1752'> +7.2021376e+04 </wgt>
<wgt id='1753'> +7.2482210e+04 </wgt>
<wgt id='1754'> +7.2618499e+04 </wgt>
<wgt id='1755'> +7.1992203e+04 </wgt>
<wgt id='1756'> +7.1813678e+04 </wgt>
<wgt id='1757'> +7.3199720e+04 </wgt>
<wgt id='1758'> +7.2216023e+04 </wgt>
<wgt id='1759'> +7.2027450e+04 </wgt>
<wgt id='1760'> +7.2429236e+04 </wgt>
<wgt id='1761'> +7.2034163e+04 </wgt>
<wgt id='1762'> +7.2065456e+04 </wgt>
<wgt id='1763'> +7.2475783e+04 </wgt>
<wgt id='1764'> +7.2187708e+04 </wgt>
<wgt id='1765'> +7.2318495e+04 </wgt>
<wgt id='1766'> +7.2188374e+04 </wgt>
<wgt id='1767'> +7.2206058e+04 </wgt>
<wgt id='1768'> +7.2235144e+04 </wgt>
<wgt id='1769'> +7.2211616e+04 </wgt>
<wgt id='1770'> +7.1985992e+04 </wgt>
<wgt id='1771'> +7.2496127e+04 </wgt>
<wgt id='1772'> +7.2292288e+04 </wgt>
<wgt id='1773'> +7.2293241e+04 </wgt>
<wgt id='1774'> +7.1312584e+04 </wgt>
<wgt id='1775'> +7.2783858e+04 </wgt>
<wgt id='1776'> +7.1767968e+04 </wgt>
<wgt id='1777'> +7.2423652e+04 </wgt>
<wgt id='1778'> +7.2009432e+04 </wgt>
<wgt id='1779'> +7.2244569e+04 </wgt>
<wgt id='1780'> +7.2825414e+04 </wgt>
<wgt id='1781'> +7.2261011e+04 </wgt>
<wgt id='1782'> +7.2214421e+04 </wgt>
<wgt id='1783'> +7.2339670e+04 </wgt>
<wgt id='1784'> +7.3508586e+04 </wgt>
<wgt id='1785'> +7.3300804e+04 </wgt>
<wgt id='1786'> +7.1715056e+04 </wgt>
<wgt id='1787'> +7.3442009e+04 </wgt>
<wgt id='1788'> +7.3668830e+04 </wgt>
<wgt id='1789'> +7.3531523e+04 </wgt>
<wgt id='1790'> +7.3080929e+04 </wgt>
<wgt id='1791'> +7.3382776e+04 </wgt>
<wgt id='1792'> +7.3011046e+04 </wgt>
<wgt id='1793'> +7.3614321e+04 </wgt>
<wgt id='1794'> +7.3906977e+04 </wgt>
<wgt id='1795'> +7.3067784e+04 </wgt>
<wgt id='1796'> +7.3504714e+04 </wgt>
<wgt id='1797'> +7.3454935e+04 </wgt>
<wgt id='1798'> +7.3431258e+04 </wgt>
<wgt id='1799'> +7.4016728e+04 </wgt>
<wgt id='1800'> +7.4213703e+04 </wgt>
<wgt id='1801'> +7.4089589e+04 </wgt>
<wgt id='1802'> +7.3676538e+04 </wgt>
<wgt id='1803'> +7.3803729e+04 </wgt>
<wgt id='1804'> +7.2936962e+04 </wgt>
<wgt id='1805'> +7.3311466e+04 </wgt>
<wgt id='1806'> +7.3387072e+04 </wgt>
<wgt id='1807'> +7.3560172e+04 </wgt>
<wgt id='1808'> +7.3557164e+04 </wgt>
<wgt id='1809'> +7.2731287e+04 </wgt>
<wgt id='1810'> +7.3332153e+04 </wgt>
<wgt id='1811'> +7.3262196e+04 </wgt>
<wgt id='1812'> +7.3361939e+04 </wgt>
<wgt id='1813'> +7.2803978e+04 </wgt>
<wgt id='1814'> +7.3370494e+04 </wgt>
<wgt id='1815'> +7.3434952e+04 </wgt>
<wgt id='1816'> +7.3357008e+04 </wgt>
<wgt id='1817'> +7.3287395e+04 </wgt>
<wgt id='1818'> +7.3512226e+04 </wgt>
<wgt id='1819'> +7.3710373e+04 </wgt>
<wgt id='1820'> +7.3354407e+04 </wgt>
<wgt id='1821'> +7.3487933e+04 </wgt>
<wgt id='1822'> +7.3576440e+04 </wgt>
<wgt id='1823'> +7.3336428e+04 </wgt>
<wgt id='1824'> +7.4298306e+04 </wgt>
<wgt id='1825'> +7.3310239e+04 </wgt>
<wgt id='1826'> +7.4191046e+04 </wgt>
<wgt id='1827'> +7.7253487e+04 </wgt>
<wgt id='1828'> +7.7376594e+04 </wgt>
<wgt id='1829'> +7.7110659e+04 </wgt>
<wgt id='1830'> +7.7295091e+04 </wgt>
<wgt id='1831'> +7.7191109e+04 </wgt>
<wgt id='1832'> +7.7311071e+04 </wgt>
<wgt id='1833'> +7.7175596e+04 </wgt>
<wgt id='1834'> +7.6952134e+04 </wgt>
<wgt id='1835'> +7.7519860e+04 </wgt>
<wgt id='1836'> +7.7374301e+04 </wgt>
<wgt id='1837'> +7.7100373e+04 </wgt>
<wgt id='1838'> +7.7004184e+04 </wgt>
<wgt id='1839'> +7.7450774e+04 </wgt>
<wgt id='1840'> +7.7206929e+04 </wgt>
<wgt id='1841'> +7.7286127e+04 </wgt>
<wgt id='1842'> +7.7329584e+04 </wgt>
<wgt id='1843'> +7.7401822e+04 </wgt>
<wgt id='1844'> +7.6793047e+04 </wgt>
<wgt id='1845'> +7.7670739e+04 </wgt>
<wgt id='1846'> +7.6109782e+04 </wgt>
<wgt id='1847'> +7.8302286e+04 </wgt>
<wgt id='1848'> +7.7307979e+04 </wgt>
<wgt id='1849'> +7.7077302e+04 </wgt>
<wgt id='1850'> +7.7855431e+04 </wgt>
<wgt id='1851'> +7.6658103e+04 </wgt>
<wgt id='1852'> +7.7727067e+04 </wgt>
<wgt id='1853'> +7.6768566e+04 </wgt>
<wgt id='1854'> +7.7511891e+04 </wgt>
<wgt id='1855'> +7.7086222e+04 </wgt>
<wgt id='1856'> +7.3211745e+04 </wgt>
<wgt id='1857'> +7.3200257e+04 </wgt>
<wgt id='1858'> +7.3113773e+04 </wgt>
<wgt id='1859'> +7.3202522e+04 </wgt>
<wgt id='1860'> +7.3212558e+04 </wgt>
<wgt id='1861'> +7.3219178e+04 </wgt>
<wgt id='1862'> +7.2887115e+04 </wgt>
<wgt id='1863'> +7.3279983e+04 </wgt>
<wgt id='1864'> +7.3111022e+04 </wgt>
<wgt id='1865'> +7.2942855e+04 </wgt>
<wgt id='1866'> +7.3191303e+04 </wgt>
<wgt id='1867'> +7.3180898e+04 </wgt>
<wgt id='1868'> +7.3250847e+04 </wgt>
<wgt id='1869'> +7.3315295e+04 </wgt>
<wgt id='1870'> +7.3007043e+04 </wgt>
<wgt id='1871'> +7.3054435e+04 </wgt>
<wgt id='1872'> +7.2993252e+04 </wgt>
<wgt id='1873'> +7.3147440e+04 </wgt>
<wgt id='1874'> +7.3038334e+04 </wgt>
<wgt id='1875'> +7.3299246e+04 </wgt>
<wgt id='1876'> +7.3063019e+04 </wgt>
<wgt id='1877'> +7.2794860e+04 </wgt>
<wgt id='1878'> +7.3160476e+04 </wgt>
<wgt id='1879'> +7.3691141e+04 </wgt>
<wgt id='1880'> +7.3529279e+04 </wgt>
<wgt id='1881'> +7.3111897e+04 </wgt>
<wgt id='1882'> +7.3151575e+04 </wgt>
<wgt id='1883'> +7.3533879e+04 </wgt>
<wgt id='1884'> +7.2535456e+04 </wgt>
<wgt id='1885'> +7.2612992e+04 </wgt>
<wgt id='1886'> +7.5179150e+04 </wgt>
<wgt id='1887'> +7.7090679e+04 </wgt>
<wgt id='1888'> +6.5430010e+04 </wgt>
<wgt id='1889'> +7.4803003e+04 </wgt>
</rwgt>
</event>
<event npLO=" -1 " npNLO=" 0 ">
 6      1 +7.4519530e+04 3.00000000e+01 7.55820760e-03 1.20259420e-01
       21 -1    0    0  502  501 +0.0000000000e+00 +0.0000000000e+00 +2.8410814651e+01 2.8410814651e+01 0.0000000000e+00 0.0000e+00 -1.0000e+00
        1 -1    0    0  501    0 +0.0000000000e+00 +0.0000000000e+00 -7.5143346760e+01 7.5143346760e+01 0.0000000000e+00 0.0000e+00 -1.0000e+00
      -24  2    1    2    0    0 -4.2363109087e+00 -9.0870318075e+00 -4.7488274960e+01 9.3499728337e+01 7.9915846134e+01 0.0000e+00 0.0000e+00
       15  1    3    3    0    0 -1.6918678003e+01 -1.9747356949e+01 +1.4161078347e+01 2.9663001210e+01 1.7770000000e+00 0.0000e+00 -1.0000e+00
      -16  1    3    3    0    0 +1.2682367094e+01 +1.0660325141e+01 -6.1649353306e+01 6.3836727127e+01 0.0000000000e+00 0.0000e+00 1.0000e+00
        2  1    1    2  502    0 +4.2363109087e+00 +9.0870318075e+00 +7.5574285056e-01 1.0054433074e+01 0.0000000000e+00 0.0000e+00 -1.0000e+00
#aMCatNLO 2  0  0  1  2 0.11541755E+02 0.00000000E+00 -9  5  0 0.00000000E+00 0.00000000E+00 0.00000000E+00 0.00000000E+00 0.00000000E+00
<rwgt>
<wgt id='1001'> +7.4519530e+04 </wgt>
<wgt id='1002'> +6.7342342e+04 </wgt>
<wgt id='1003'> +8.3461789e+04 </wgt>
<wgt id='1004'> +8.2023153e+04 </wgt>
<wgt id='1005'> +7.4123271e+04 </wgt>
<wgt id='1006'> +9.1865840e+04 </wgt>
<wgt id='1007'> +6.5791569e+04 </wgt>
<wgt id='1008'> +5.9454998e+04 </wgt>
<wgt id='1009'> +7.3686485e+04 </wgt>
<wgt id='1010'> +7.4519530e+04 </wgt>
<wgt id='1011'> +7.4565143e+04 </wgt>
<wgt id='1012'> +7.4446797e+04 </wgt>
<wgt id='1013'> +7.4509754e+04 </wgt>
<wgt id='1014'> +7.4700541e+04 </wgt>
<wgt id='1015'> +7.4524447e+04 </wgt>
<wgt id='1016'> +7.4493378e+04 </wgt>
<wgt id='1017'> +7.4708975e+04 </wgt>
<wgt id='1018'> +7.4515376e+04 </wgt>
<wgt id='1019'> +7.4719482e+04 </wgt>
<wgt id='1020'> +7.4452199e+04 </wgt>
<wgt id='1021'> +7.4368281e+04 </wgt>
<wgt id='1022'> +7.4617426e+04 </wgt>
<wgt id='1023'> +7.4468334e+04 </wgt>
<wgt id='1024'> +7.4461434e+04 </wgt>
<wgt id='1025'> +7.4951408e+04 </wgt>
<wgt id='1026'> +7.4058668e+04 </wgt>
<wgt id='1027'> +7.4332448e+04 </wgt>
<wgt id='1028'> +7.4288175e+04 </wgt>
<wgt id='1029'> +7.4807044e+04 </wgt>
<wgt id='1030'> +7.4906210e+04 </wgt>
<wgt id='1031'> +7.4715900e+04 </wgt>
<wgt id='1032'> +7.4631553e+04 </wgt>
<wgt id='1033'> +7.4316609e+04 </wgt>
<wgt id='1034'> +7.4485813e+04 </wgt>
<wgt id='1035'> +7.4141133e+04 </wgt>
<wgt id='1036'> +7.4355612e+04 </wgt>
<wgt id='1037'> +7.5145473e+04 </wgt>
<wgt id='1038'> +7.4668717e+04 </wgt>
<wgt id='1039'> +7.4347940e+04 </wgt>
<wgt id='1040'> +7.4417873e+04 </wgt>
<wgt id='1041'> +7.4592150e+04 </wgt>
<wgt id='1042'> +7.4407325e+04 </wgt>
<wgt id='1043'> +7.4690209e+04 </wgt>
<wgt id='1044'> +7.4609546e+04 </wgt>
<wgt id='1045'> +7.4582351e+04 </wgt>
<wgt id='1046'> +7.4569418e+04 </wgt>
<wgt id='1047'> +7.4154576e+04 </wgt>
<wgt id='1048'> +7.4511259e+04 </wgt>
<wgt id='1049'> +7.4702611e+04 </wgt>
<wgt id='1050'> +7.4369885e+04 </wgt>
<wgt id='1051'> +7.4611969e+04 </wgt>
<wgt id='1052'> +7.4542636e+04 </wgt>
<wgt id='1053'> +7.4267378e+04 </wgt>
<wgt id='1054'> +7.4356251e+04 </wgt>
<wgt id='1055'> +7.4500297e+04 </wgt>
<wgt id='1056'> +7.4777240e+04 </wgt>
<wgt id='1057'> +7.4399605e+04 </wgt>
<wgt id='1058'> +7.4570631e+04 </wgt>
<wgt id='1059'> +7.4446051e+04 </wgt>
<wgt id='1060'> +7.4493853e+04 </wgt>
<wgt id='1061'> +7.4495613e+04 </wgt>
<wgt id='1062'> +7.4501862e+04 </wgt>
<wgt id='1063'> +7.4534898e+04 </wgt>
<wgt id='1064'> +7.4594231e+04 </wgt>
<wgt id='1065'> +7.4617524e+04 </wgt>
<wgt id='1066'> +7.4590635e+04 </wgt>
<wgt id='1067'> +7.4536123e+04 </wgt>
<wgt id='1068'> +7.4539580e+04 </wgt>
<wgt id='1069'> +7.4506654e+04 </wgt>
<wgt id='1070'> +7.4513658e+04 </wgt>
<wgt id='1071'> +7.4546449e+04 </wgt>
<wgt id='1072'> +7.4561504e+04 </wgt>
<wgt id='1073'> +7.4527199e+04 </wgt>
<wgt id='1074'> +7.4604834e+04 </wgt>
<wgt id='1075'> +7.4522881e+04 </wgt>
<wgt id='1076'> +7.4579644e+04 </wgt>
<wgt id='1077'> +7.4524383e+04 </wgt>
<wgt id='1078'> +7.4469990e+04 </wgt>
<wgt id='1079'> +7.4614015e+04 </wgt>
<wgt id='1080'> +7.4577917e+04 </wgt>
<wgt id='1081'> +7.4557869e+04 </wgt>
<wgt id='1082'> +7.4524149e+04 </wgt>
<wgt id='1083'> +7.4542816e+04 </wgt>
<wgt id='1084'> +7.4570912e+04 </wgt>
<wgt id='1085'> +7.4468849e+04 </wgt>
<wgt id='1086'> +7.4545856e+04 </wgt>
<wgt id='1087'> +7.4558125e+04 </wgt>
<wgt id='1088'> +7.4524783e+04 </wgt>
<wgt id='1089'> +7.4557669e+04 </wgt>
<wgt id='1090'> +7.4523446e+04 </wgt>
<wgt id='1091'> +7.4500637e+04 </wgt>
<wgt id='1092'> +7.4501894e+04 </wgt>
<wgt id='1093'> +7.4529145e+04 </wgt>
<wgt id='1094'> +7.4508251e+04 </wgt>
<wgt id='1095'> +7.4507608e+04 </wgt>
<wgt id='1096'> +7.4552853e+04 </wgt>
<wgt id='1097'> +7.4501764e+04 </wgt>
<wgt id='1098'> +7.4532026e+04 </wgt>
<wgt id='1099'> +7.4525785e+04 </wgt>
<wgt id='1100'> +7.4499333e+04 </wgt>
<wgt id='1101'> +7.4483881e+04 </wgt>
<wgt id='1102'> +7.4529569e+04 </wgt>
<wgt id='1103'> +7.4531960e+04 </wgt>
<wgt id='1104'> +7.4492474e+04 </wgt>
<wgt id='1105'> +7.4550167e+04 </wgt>
<wgt id='1106'> +7.4508482e+04 </wgt>
<wgt id='1107'> +7.4507923e+04 </wgt>
<wgt id='1108'> +7.4475680e+04 </wgt>
<wgt id='1109'> +7.4535613e+04 </wgt>
<wgt id='1110'> +7.4519528e+04 </wgt>
<wgt id='1111'> +7.3557742e+04 </wgt>
<wgt id='1112'> +7.5026304e+04 </wgt>
<wgt id='1113'> +7.4519528e+04 </wgt>
<wgt id='1114'> +7.6985061e+04 </wgt>
<wgt id='1115'> +7.4886764e+04 </wgt>
<wgt id='1116'> +7.1223625e+04 </wgt>
<wgt id='1117'> +7.2633227e+04 </wgt>
<wgt id='1118'> +7.5562213e+04 </wgt>
<wgt id='1119'> +7.6305274e+04 </wgt>
<wgt id='1120'> +7.5339787e+04 </wgt>
<wgt id='1121'> +7.3013648e+04 </wgt>
<wgt id='1122'> +7.3587947e+04 </wgt>
<wgt id='1123'> +7.4874161e+04 </wgt>
<wgt id='1124'> +7.4676246e+04 </wgt>
<wgt id='1125'> +7.2634463e+04 </wgt>
<wgt id='1126'> +7.4602390e+04 </wgt>
<wgt id='1127'> +7.2455441e+04 </wgt>
<wgt id='1128'> +7.5559489e+04 </wgt>
<wgt id='1129'> +7.6019515e+04 </wgt>
<wgt id='1130'> +7.6915272e+04 </wgt>
<wgt id='1131'> +7.4354627e+04 </wgt>
<wgt id='1132'> +7.4705869e+04 </wgt>
<wgt id='1133'> +7.3552179e+04 </wgt>
<wgt id='1134'> +7.2447965e+04 </wgt>
<wgt id='1135'> +7.5350186e+04 </wgt>
<wgt id='1136'> +7.7083514e+04 </wgt>
<wgt id='1137'> +7.4270279e+04 </wgt>
<wgt id='1138'> +7.2326987e+04 </wgt>
<wgt id='1139'> +7.4738465e+04 </wgt>
<wgt id='1140'> +7.6608855e+04 </wgt>
<wgt id='1141'> +7.3865688e+04 </wgt>
<wgt id='1142'> +7.5661728e+04 </wgt>
<wgt id='1143'> +7.5383097e+04 </wgt>
<wgt id='1144'> +7.4080123e+04 </wgt>
<wgt id='1145'> +7.3450497e+04 </wgt>
<wgt id='1146'> +7.4535833e+04 </wgt>
<wgt id='1147'> +7.2654832e+04 </wgt>
<wgt id='1148'> +7.6483108e+04 </wgt>
<wgt id='1149'> +7.3454605e+04 </wgt>
<wgt id='1150'> +7.6221265e+04 </wgt>
<wgt id='1151'> +7.4076316e+04 </wgt>
<wgt id='1152'> +7.3182350e+04 </wgt>
<wgt id='1153'> +7.2271352e+04 </wgt>
<wgt id='1154'> +7.3525183e+04 </wgt>
<wgt id='1155'> +7.3942016e+04 </wgt>
<wgt id='1156'> +7.5763804e+04 </wgt>
<wgt id='1157'> +7.4395785e+04 </wgt>
<wgt id='1158'> +7.5450322e+04 </wgt>
<wgt id='1159'> +7.5246169e+04 </wgt>
<wgt id='1160'> +7.2601802e+04 </wgt>
<wgt id='1161'> +7.3203695e+04 </wgt>
<wgt id='1162'> +7.6126959e+04 </wgt>
<wgt id='1163'> +7.6902490e+04 </wgt>
<wgt id='1164'> +7.4548284e+04 </wgt>
<wgt id='1165'> +7.4540321e+04 </wgt>
<wgt id='1166'> +7.3625853e+04 </wgt>
<wgt id='1167'> +7.6204832e+04 </wgt>
<wgt id='1168'> +7.2625542e+04 </wgt>
<wgt id='1169'> +7.5857743e+04 </wgt>
<wgt id='1170'> +7.7402876e+04 </wgt>
<wgt id='1171'> +7.4339717e+04 </wgt>
<wgt id='1172'> +7.4482935e+04 </wgt>
<wgt id='1173'> +7.5162090e+04 </wgt>
<wgt id='1174'> +7.4197785e+04 </wgt>
<wgt id='1175'> +7.5855733e+04 </wgt>
<wgt id='1176'> +7.5927986e+04 </wgt>
<wgt id='1177'> +7.2024152e+04 </wgt>
<wgt id='1178'> +7.4914756e+04 </wgt>
<wgt id='1179'> +7.3354059e+04 </wgt>
<wgt id='1180'> +7.4373656e+04 </wgt>
<wgt id='1181'> +7.6280962e+04 </wgt>
<wgt id='1182'> +7.4277783e+04 </wgt>
<wgt id='1183'> +7.4000582e+04 </wgt>
<wgt id='1184'> +7.4937920e+04 </wgt>
<wgt id='1185'> +7.9257435e+04 </wgt>
<wgt id='1186'> +7.2988735e+04 </wgt>
<wgt id='1187'> +7.2997803e+04 </wgt>
<wgt id='1188'> +7.3594676e+04 </wgt>
<wgt id='1189'> +7.4556643e+04 </wgt>
<wgt id='1190'> +7.2760568e+04 </wgt>
<wgt id='1191'> +7.3462785e+04 </wgt>
<wgt id='1192'> +7.4031679e+04 </wgt>
<wgt id='1193'> +7.4274894e+04 </wgt>
<wgt id='1194'> +7.3702534e+04 </wgt>
<wgt id='1195'> +7.6019515e+04 </wgt>
<wgt id='1196'> +7.3703336e+04 </wgt>
<wgt id='1197'> +7.4199437e+04 </wgt>
<wgt id='1198'> +7.4042738e+04 </wgt>
<wgt id='1199'> +7.6616903e+04 </wgt>
<wgt id='1200'> +7.5375511e+04 </wgt>
<wgt id='1201'> +7.5754704e+04 </wgt>
<wgt id='1202'> +7.1567102e+04 </wgt>
<wgt id='1203'> +7.3822340e+04 </wgt>
<wgt id='1204'> +7.4057750e+04 </wgt>
<wgt id='1205'> +7.3679981e+04 </wgt>
<wgt id='1206'> +7.4551131e+04 </wgt>
<wgt id='1207'> +7.7163940e+04 </wgt>
<wgt id='1208'> +7.4551770e+04 </wgt>
<wgt id='1209'> +7.3093073e+04 </wgt>
<wgt id='1210'> +7.4361724e+04 </wgt>
<wgt id='1211'> +7.4495014e+04 </wgt>
<wgt id='1212'> +7.2742957e+04 </wgt>
<wgt id='1213'> +7.6203611e+04 </wgt>
<wgt id='1214'> +7.4406330e+04 </wgt>
<wgt id='1215'> +7.1726682e+04 </wgt>
<wgt id='1216'> +7.2012308e+04 </wgt>
<wgt id='1217'> +7.2378281e+04 </wgt>
<wgt id='1218'> +7.3143446e+04 </wgt>
<wgt id='1219'> +7.4346980e+04 </wgt>
<wgt id='1220'> +7.4650237e+04 </wgt>
<wgt id='1221'> +7.5708672e+04 </wgt>
<wgt id='1222'> +7.5979211e+04 </wgt>
<wgt id='1223'> +7.4223612e+04 </wgt>
<wgt id='1224'> +7.4311171e+04 </wgt>
<wgt id='1225'> +7.4144138e+04 </wgt>
<wgt id='1226'> +7.4313490e+04 </wgt>
<wgt id='1227'> +7.4437239e+04 </wgt>
<wgt id='1228'> +7.4405952e+04 </wgt>
<wgt id='1229'> +7.4078684e+04 </wgt>
<wgt id='1230'> +7.4319253e+04 </wgt>
<wgt id='1231'> +7.4260339e+04 </wgt>
<wgt id='1232'> +7.4151639e+04 </wgt>
<wgt id='1233'> +7.3793475e+04 </wgt>
<wgt id='1234'> +7.4290317e+04 </wgt>
<wgt id='1235'> +7.4565443e+04 </wgt>
<wgt id='1236'> +7.4119874e+04 </wgt>
<wgt id='1237'> +7.4380182e+04 </wgt>
<wgt id='1238'> +7.4112015e+04 </wgt>
<wgt id='1239'> +7.4714294e+04 </wgt>
<wgt id='1240'> +7.4090993e+04 </wgt>
<wgt id='1241'> +7.4420024e+04 </wgt>
<wgt id='1242'> +7.4159160e+04 </wgt>
<wgt id='1243'> +7.3929059e+04 </wgt>
<wgt id='1244'> +7.4683508e+04 </wgt>
<wgt id='1245'> +7.4228072e+04 </wgt>
<wgt id='1246'> +7.4007343e+04 </wgt>
<wgt id='1247'> +7.4779968e+04 </wgt>
<wgt id='1248'> +7.4017569e+04 </wgt>
<wgt id='1249'> +7.4315191e+04 </wgt>
<wgt id='1250'> +7.3931948e+04 </wgt>
<wgt id='1251'> +7.4116123e+04 </wgt>
<wgt id='1252'> +7.4704190e+04 </wgt>
<wgt id='1253'> +7.4568065e+04 </wgt>
<wgt id='1254'> +7.3782322e+04 </wgt>
<wgt id='1255'> +7.4495670e+04 </wgt>
<wgt id='1256'> +7.4048266e+04 </wgt>
<wgt id='1257'> +7.4110660e+04 </wgt>
<wgt id='1258'> +7.4255481e+04 </wgt>
<wgt id='1259'> +7.4179586e+04 </wgt>
<wgt id='1260'> +7.4092262e+04 </wgt>
<wgt id='1261'> +7.4175019e+04 </wgt>
<wgt id='1262'> +7.4232646e+04 </wgt>
<wgt id='1263'> +7.4175972e+04 </wgt>
<wgt id='1264'> +7.4325529e+04 </wgt>
<wgt id='1265'> +7.4111475e+04 </wgt>
<wgt id='1266'> +7.4207974e+04 </wgt>
<wgt id='1267'> +7.4208461e+04 </wgt>
<wgt id='1268'> +7.4161649e+04 </wgt>
<wgt id='1269'> +7.4255200e+04 </wgt>
<wgt id='1270'> +7.4251971e+04 </wgt>
<wgt id='1271'> +7.4238440e+04 </wgt>
<wgt id='1272'> +7.4222568e+04 </wgt>
<wgt id='1273'> +7.4247429e+04 </wgt>
<wgt id='1274'> +7.4208622e+04 </wgt>
<wgt id='1275'> +7.4145677e+04 </wgt>
<wgt id='1276'> +7.4192380e+04 </wgt>
<wgt id='1277'> +7.4127380e+04 </wgt>
<wgt id='1278'> +7.4263054e+04 </wgt>
<wgt id='1279'> +7.4232449e+04 </wgt>
<wgt id='1280'> +7.4149735e+04 </wgt>
<wgt id='1281'> +7.4191938e+04 </wgt>
<wgt id='1282'> +7.4213268e+04 </wgt>
<wgt id='1283'> +7.4213730e+04 </wgt>
<wgt id='1284'> +7.4290876e+04 </wgt>
<wgt id='1285'> +7.4368479e+04 </wgt>
<wgt id='1286'> +7.4335282e+04 </wgt>
<wgt id='1287'> +7.4241832e+04 </wgt>
<wgt id='1288'> +7.4253508e+04 </wgt>
<wgt id='1289'> +7.4276456e+04 </wgt>
<wgt id='1290'> +7.4217164e+04 </wgt>
<wgt id='1291'> +7.4205033e+04 </wgt>
<wgt id='1292'> +7.4153955e+04 </wgt>
<wgt id='1293'> +7.4267064e+04 </wgt>
<wgt id='1294'> +7.4219275e+04 </wgt>
<wgt id='1295'> +7.4271573e+04 </wgt>
<wgt id='1296'> +7.4240194e+04 </wgt>
<wgt id='1297'> +7.4227837e+04 </wgt>
<wgt id='1298'> +7.4250655e+04 </wgt>
<wgt id='1299'> +7.4143145e+04 </wgt>
<wgt id='1300'> +7.4288498e+04 </wgt>
<wgt id='1301'> +7.4200372e+04 </wgt>
<wgt id='1302'> +7.4241428e+04 </wgt>
<wgt id='1303'> +7.4200982e+04 </wgt>
<wgt id='1304'> +7.4156202e+04 </wgt>
<wgt id='1305'> +7.4226563e+04 </wgt>
<wgt id='1306'> +7.4208616e+04 </wgt>
<wgt id='1307'> +7.4273416e+04 </wgt>
<wgt id='1308'> +7.4283834e+04 </wgt>
<wgt id='1309'> +7.4192125e+04 </wgt>
<wgt id='1310'> +7.4216242e+04 </wgt>
<wgt id='1311'> +7.4226398e+04 </wgt>
<wgt id='1312'> +7.4227052e+04 </wgt>
<wgt id='1313'> +7.4219682e+04 </wgt>
<wgt id='1314'> +7.4173083e+04 </wgt>
<wgt id='1315'> +7.4271489e+04 </wgt>
<wgt id='1316'> +7.4215824e+04 </wgt>
<wgt id='1317'> +7.4254830e+04 </wgt>
<wgt id='1318'> +7.4189408e+04 </wgt>
<wgt id='1319'> +7.4224232e+04 </wgt>
<wgt id='1320'> +7.4200292e+04 </wgt>
<wgt id='1321'> +7.4251482e+04 </wgt>
<wgt id='1322'> +7.4212540e+04 </wgt>
<wgt id='1323'> +7.4222315e+04 </wgt>
<wgt id='1324'> +7.3541343e+04 </wgt>
<wgt id='1325'> +7.5131620e+04 </wgt>
<wgt id='1326'> +7.2183983e+04 </wgt>
<wgt id='1327'> +7.0719028e+04 </wgt>
<wgt id='1328'> +7.4540745e+04 </wgt>
<wgt id='1329'> +7.3554234e+04 </wgt>
<wgt id='1330'> +7.6223486e+04 </wgt>
<wgt id='1331'> +7.3506786e+04 </wgt>
<wgt id='1332'> +7.5861167e+04 </wgt>
<wgt id='1333'> +7.4733032e+04 </wgt>
<wgt id='1334'> +7.2986709e+04 </wgt>
<wgt id='1335'> +7.3097438e+04 </wgt>
<wgt id='1336'> +7.4709160e+04 </wgt>
<wgt id='1337'> +7.5062879e+04 </wgt>
<wgt id='1338'> +7.4649461e+04 </wgt>
<wgt id='1339'> +7.3975209e+04 </wgt>
<wgt id='1340'> +7.2091849e+04 </wgt>
<wgt id='1341'> +7.3994381e+04 </wgt>
<wgt id='1342'> +7.5704304e+04 </wgt>
<wgt id='1343'> +7.5685777e+04 </wgt>
<wgt id='1344'> +7.4785342e+04 </wgt>
<wgt id='1345'> +7.4910330e+04 </wgt>
<wgt id='1346'> +7.3800045e+04 </wgt>
<wgt id='1347'> +7.6425352e+04 </wgt>
<wgt id='1348'> +7.1620259e+04 </wgt>
<wgt id='1349'> +7.4981977e+04 </wgt>
<wgt id='1350'> +7.4736733e+04 </wgt>
<wgt id='1351'> +7.4883881e+04 </wgt>
<wgt id='1352'> +7.5123052e+04 </wgt>
<wgt id='1353'> +7.7030828e+04 </wgt>
<wgt id='1354'> +7.4194928e+04 </wgt>
<wgt id='1355'> +7.5018940e+04 </wgt>
<wgt id='1356'> +7.5887537e+04 </wgt>
<wgt id='1357'> +7.3572866e+04 </wgt>
<wgt id='1358'> +7.5581937e+04 </wgt>
<wgt id='1359'> +7.4253724e+04 </wgt>
<wgt id='1360'> +7.7097897e+04 </wgt>
<wgt id='1361'> +7.6207660e+04 </wgt>
<wgt id='1362'> +7.6837687e+04 </wgt>
<wgt id='1363'> +7.4526878e+04 </wgt>
<wgt id='1364'> +7.4981992e+04 </wgt>
<wgt id='1365'> +7.3711646e+04 </wgt>
<wgt id='1366'> +7.4783425e+04 </wgt>
<wgt id='1367'> +7.6911803e+04 </wgt>
<wgt id='1368'> +7.4531558e+04 </wgt>
<wgt id='1369'> +7.3073345e+04 </wgt>
<wgt id='1370'> +7.2731388e+04 </wgt>
<wgt id='1371'> +7.4976432e+04 </wgt>
<wgt id='1372'> +7.7405622e+04 </wgt>
<wgt id='1373'> +7.3928491e+04 </wgt>
<wgt id='1374'> +7.4762324e+04 </wgt>
<wgt id='1375'> +7.4858790e+04 </wgt>
<wgt id='1376'> +7.2920214e+04 </wgt>
<wgt id='1377'> +7.6245639e+04 </wgt>
<wgt id='1378'> +7.4042861e+04 </wgt>
<wgt id='1379'> +7.5032583e+04 </wgt>
<wgt id='1380'> +7.4848834e+04 </wgt>
<wgt id='1381'> +7.5547277e+04 </wgt>
<wgt id='1382'> +7.2617085e+04 </wgt>
<wgt id='1383'> +7.3714881e+04 </wgt>
<wgt id='1384'> +7.4911514e+04 </wgt>
<wgt id='1385'> +7.0740654e+04 </wgt>
<wgt id='1386'> +7.5580519e+04 </wgt>
<wgt id='1387'> +7.4007744e+04 </wgt>
<wgt id='1388'> +7.4458305e+04 </wgt>
<wgt id='1389'> +7.5213795e+04 </wgt>
<wgt id='1390'> +6.9252290e+04 </wgt>
<wgt id='1391'> +7.2533697e+04 </wgt>
<wgt id='1392'> +7.4314086e+04 </wgt>
<wgt id='1393'> +7.3844179e+04 </wgt>
<wgt id='1394'> +7.3711646e+04 </wgt>
<wgt id='1395'> +7.4650009e+04 </wgt>
<wgt id='1396'> +7.6859203e+04 </wgt>
<wgt id='1397'> +7.5983161e+04 </wgt>
<wgt id='1398'> +7.5668517e+04 </wgt>
<wgt id='1399'> +7.5175152e+04 </wgt>
<wgt id='1400'> +7.6255639e+04 </wgt>
<wgt id='1401'> +7.4962117e+04 </wgt>
<wgt id='1402'> +7.5709207e+04 </wgt>
<wgt id='1403'> +7.5292242e+04 </wgt>
<wgt id='1404'> +7.6233245e+04 </wgt>
<wgt id='1405'> +7.2343297e+04 </wgt>
<wgt id='1406'> +7.4699618e+04 </wgt>
<wgt id='1407'> +7.6009285e+04 </wgt>
<wgt id='1408'> +7.5578403e+04 </wgt>
<wgt id='1409'> +7.2977609e+04 </wgt>
<wgt id='1410'> +7.5179949e+04 </wgt>
<wgt id='1411'> +7.3251651e+04 </wgt>
<wgt id='1412'> +7.5695564e+04 </wgt>
<wgt id='1413'> +7.4772693e+04 </wgt>
<wgt id='1414'> +7.0327817e+04 </wgt>
<wgt id='1415'> +7.1214532e+04 </wgt>
<wgt id='1416'> +7.3682064e+04 </wgt>
<wgt id='1417'> +7.4335679e+04 </wgt>
<wgt id='1418'> +7.6172016e+04 </wgt>
<wgt id='1419'> +7.4968292e+04 </wgt>
<wgt id='1420'> +7.1563697e+04 </wgt>
<wgt id='1421'> +7.4879649e+04 </wgt>
<wgt id='1422'> +7.4422999e+04 </wgt>
<wgt id='1423'> +7.3223866e+04 </wgt>
<wgt id='1424'> +7.2292191e+04 </wgt>
<wgt id='1425'> +7.5929417e+04 </wgt>
<wgt id='1426'> +7.4765697e+04 </wgt>
<wgt id='1427'> +7.5334194e+04 </wgt>
<wgt id='1428'> +7.5834571e+04 </wgt>
<wgt id='1429'> +7.3996123e+04 </wgt>
<wgt id='1430'> +7.4787303e+04 </wgt>
<wgt id='1431'> +7.4502410e+04 </wgt>
<wgt id='1432'> +7.4675334e+04 </wgt>
<wgt id='1433'> +7.4451526e+04 </wgt>
<wgt id='1434'> +7.4446644e+04 </wgt>
<wgt id='1435'> +7.4407922e+04 </wgt>
<wgt id='1436'> +7.3770607e+04 </wgt>
<wgt id='1437'> +7.4958138e+04 </wgt>
<wgt id='1438'> +7.4565863e+04 </wgt>
<wgt id='1439'> +7.3453429e+04 </wgt>
<wgt id='1440'> +7.4562859e+04 </wgt>
<wgt id='1441'> +7.4365284e+04 </wgt>
<wgt id='1442'> +7.4557039e+04 </wgt>
<wgt id='1443'> +7.4304069e+04 </wgt>
<wgt id='1444'> +7.4416178e+04 </wgt>
<wgt id='1445'> +7.4389657e+04 </wgt>
<wgt id='1446'> +7.4532214e+04 </wgt>
<wgt id='1447'> +7.4578941e+04 </wgt>
<wgt id='1448'> +7.4450058e+04 </wgt>
<wgt id='1449'> +7.4510670e+04 </wgt>
<wgt id='1450'> +7.4502577e+04 </wgt>
<wgt id='1451'> +7.4504542e+04 </wgt>
<wgt id='1452'> +7.4317449e+04 </wgt>
<wgt id='1453'> +7.4454841e+04 </wgt>
<wgt id='1454'> +7.4560000e+04 </wgt>
<wgt id='1455'> +7.4595944e+04 </wgt>
<wgt id='1456'> +7.4532727e+04 </wgt>
<wgt id='1457'> +7.4452503e+04 </wgt>
<wgt id='1458'> +7.4478453e+04 </wgt>
<wgt id='1459'> +7.4540253e+04 </wgt>
<wgt id='1460'> +7.4534527e+04 </wgt>
<wgt id='1461'> +7.4496164e+04 </wgt>
<wgt id='1462'> +7.4500443e+04 </wgt>
<wgt id='1463'> +7.4458738e+04 </wgt>
<wgt id='1464'> +7.4501286e+04 </wgt>
<wgt id='1465'> +7.4469413e+04 </wgt>
<wgt id='1466'> +7.4478062e+04 </wgt>
<wgt id='1467'> +7.4502575e+04 </wgt>
<wgt id='1468'> +7.4564413e+04 </wgt>
<wgt id='1469'> +7.4501058e+04 </wgt>
<wgt id='1470'> +7.4512656e+04 </wgt>
<wgt id='1471'> +7.4525298e+04 </wgt>
<wgt id='1472'> +7.4538106e+04 </wgt>
<wgt id='1473'> +7.4462452e+04 </wgt>
<wgt id='1474'> +7.4489189e+04 </wgt>
<wgt id='1475'> +7.4507057e+04 </wgt>
<wgt id='1476'> +7.4479888e+04 </wgt>
<wgt id='1477'> +7.4501055e+04 </wgt>
<wgt id='1478'> +7.4477509e+04 </wgt>
<wgt id='1479'> +7.4498430e+04 </wgt>
<wgt id='1480'> +7.4487423e+04 </wgt>
<wgt id='1481'> +7.4517342e+04 </wgt>
<wgt id='1482'> +7.3996123e+04 </wgt>
<wgt id='1483'> +7.4787303e+04 </wgt>
<wgt id='1484'> +7.3411255e+04 </wgt>
<wgt id='1485'> +7.3958139e+04 </wgt>
<wgt id='1486'> +7.3647005e+04 </wgt>
<wgt id='1487'> +7.2866645e+04 </wgt>
<wgt id='1488'> +7.4837519e+04 </wgt>
<wgt id='1489'> +7.3184149e+04 </wgt>
<wgt id='1490'> +7.1208344e+04 </wgt>
<wgt id='1491'> +7.1543851e+04 </wgt>
<wgt id='1492'> +7.3204090e+04 </wgt>
<wgt id='1493'> +7.3279626e+04 </wgt>
<wgt id='1494'> +7.3096315e+04 </wgt>
<wgt id='1495'> +7.2063157e+04 </wgt>
<wgt id='1496'> +7.2952818e+04 </wgt>
<wgt id='1497'> +7.1207320e+04 </wgt>
<wgt id='1498'> +7.4434125e+04 </wgt>
<wgt id='1499'> +7.3357317e+04 </wgt>
<wgt id='1500'> +7.0167697e+04 </wgt>
<wgt id='1501'> +7.2845194e+04 </wgt>
<wgt id='1502'> +7.3595315e+04 </wgt>
<wgt id='1503'> +7.2304457e+04 </wgt>
<wgt id='1504'> +7.3213630e+04 </wgt>
<wgt id='1505'> +7.3083687e+04 </wgt>
<wgt id='1506'> +7.3590492e+04 </wgt>
<wgt id='1507'> +7.3521926e+04 </wgt>
<wgt id='1508'> +7.1359150e+04 </wgt>
<wgt id='1509'> +7.3669305e+04 </wgt>
<wgt id='1510'> +7.3677542e+04 </wgt>
<wgt id='1511'> +7.3773302e+04 </wgt>
<wgt id='1512'> +7.3721723e+04 </wgt>
<wgt id='1513'> +7.2224147e+04 </wgt>
<wgt id='1514'> +7.3371831e+04 </wgt>
<wgt id='1515'> +7.3778205e+04 </wgt>
<wgt id='1516'> +7.3694926e+04 </wgt>
<wgt id='1517'> +7.3748588e+04 </wgt>
<wgt id='1518'> +7.2984164e+04 </wgt>
<wgt id='1519'> +7.2732088e+04 </wgt>
<wgt id='1520'> +7.3751447e+04 </wgt>
<wgt id='1521'> +7.4433161e+04 </wgt>
<wgt id='1522'> +7.3779030e+04 </wgt>
<wgt id='1523'> +7.3503969e+04 </wgt>
<wgt id='1524'> +7.4361641e+04 </wgt>
<wgt id='1525'> +7.3483104e+04 </wgt>
<wgt id='1526'> +7.2986228e+04 </wgt>
<wgt id='1527'> +7.4223209e+04 </wgt>
<wgt id='1528'> +7.3355464e+04 </wgt>
<wgt id='1529'> +7.3590209e+04 </wgt>
<wgt id='1530'> +7.2551966e+04 </wgt>
<wgt id='1531'> +7.3202036e+04 </wgt>
<wgt id='1532'> +7.2187330e+04 </wgt>
<wgt id='1533'> +7.4575242e+04 </wgt>
<wgt id='1534'> +7.3030542e+04 </wgt>
<wgt id='1535'> +7.3667741e+04 </wgt>
<wgt id='1536'> +7.3283048e+04 </wgt>
<wgt id='1537'> +7.3897448e+04 </wgt>
<wgt id='1538'> +7.3765645e+04 </wgt>
<wgt id='1539'> +7.3843044e+04 </wgt>
<wgt id='1540'> +7.4429857e+04 </wgt>
<wgt id='1541'> +7.4240143e+04 </wgt>
<wgt id='1542'> +7.3135086e+04 </wgt>
<wgt id='1543'> +7.3942156e+04 </wgt>
<wgt id='1544'> +7.3738186e+04 </wgt>
<wgt id='1545'> +7.4416167e+04 </wgt>
<wgt id='1546'> +7.3213855e+04 </wgt>
<wgt id='1547'> +7.3907547e+04 </wgt>
<wgt id='1548'> +7.4224933e+04 </wgt>
<wgt id='1549'> +7.4150183e+04 </wgt>
<wgt id='1550'> +7.4496537e+04 </wgt>
<wgt id='1551'> +7.4748250e+04 </wgt>
<wgt id='1552'> +7.3398580e+04 </wgt>
<wgt id='1553'> +7.4297283e+04 </wgt>
<wgt id='1554'> +7.4189579e+04 </wgt>
<wgt id='1555'> +7.2901877e+04 </wgt>
<wgt id='1556'> +7.2247264e+04 </wgt>
<wgt id='1557'> +7.3490638e+04 </wgt>
<wgt id='1558'> +7.3761130e+04 </wgt>
<wgt id='1559'> +7.5002208e+04 </wgt>
<wgt id='1560'> +7.4736269e+04 </wgt>
<wgt id='1561'> +7.4272803e+04 </wgt>
<wgt id='1562'> +7.3948715e+04 </wgt>
<wgt id='1563'> +7.4016740e+04 </wgt>
<wgt id='1564'> +7.4769771e+04 </wgt>
<wgt id='1565'> +7.3858935e+04 </wgt>
<wgt id='1566'> +7.1802202e+04 </wgt>
<wgt id='1567'> +7.2632951e+04 </wgt>
<wgt id='1568'> +7.2502063e+04 </wgt>
<wgt id='1569'> +7.3671626e+04 </wgt>
<wgt id='1570'> +7.2745945e+04 </wgt>
<wgt id='1571'> +7.3508672e+04 </wgt>
<wgt id='1572'> +7.4799284e+04 </wgt>
<wgt id='1573'> +7.3002553e+04 </wgt>
<wgt id='1574'> +7.2009898e+04 </wgt>
<wgt id='1575'> +7.3745238e+04 </wgt>
<wgt id='1576'> +7.4096947e+04 </wgt>
<wgt id='1577'> +7.3396350e+04 </wgt>
<wgt id='1578'> +7.3543536e+04 </wgt>
<wgt id='1579'> +7.1589205e+04 </wgt>
<wgt id='1580'> +7.4196887e+04 </wgt>
<wgt id='1581'> +7.4400943e+04 </wgt>
<wgt id='1582'> +7.5708370e+04 </wgt>
<wgt id='1583'> +7.2370210e+04 </wgt>
<wgt id='1584'> +7.0191012e+04 </wgt>
<wgt id='1585'> +7.2071282e+04 </wgt>
<wgt id='1586'> +7.3699907e+04 </wgt>
<wgt id='1587'> +7.3730868e+04 </wgt>
<wgt id='1588'> +7.3996123e+04 </wgt>
<wgt id='1589'> +7.4142145e+04 </wgt>
<wgt id='1590'> +7.4362476e+04 </wgt>
<wgt id='1591'> +7.4787303e+04 </wgt>
<wgt id='1592'> +7.4743042e+04 </wgt>
<wgt id='1593'> +7.2517632e+04 </wgt>
<wgt id='1594'> +7.2033050e+04 </wgt>
<wgt id='1595'> +7.1865915e+04 </wgt>
<wgt id='1596'> +7.2481020e+04 </wgt>
<wgt id='1597'> +7.2412879e+04 </wgt>
<wgt id='1598'> +7.1150654e+04 </wgt>
<wgt id='1599'> +7.3540887e+04 </wgt>
<wgt id='1600'> +7.2019025e+04 </wgt>
<wgt id='1601'> +7.2781991e+04 </wgt>
<wgt id='1602'> +7.0948472e+04 </wgt>
<wgt id='1603'> +7.3921311e+04 </wgt>
<wgt id='1604'> +7.2683323e+04 </wgt>
<wgt id='1605'> +7.2758674e+04 </wgt>
<wgt id='1606'> +7.1589288e+04 </wgt>
<wgt id='1607'> +7.2963200e+04 </wgt>
<wgt id='1608'> +7.2460820e+04 </wgt>
<wgt id='1609'> +7.1359600e+04 </wgt>
<wgt id='1610'> +7.2454433e+04 </wgt>
<wgt id='1611'> +7.2385696e+04 </wgt>
<wgt id='1612'> +7.3222743e+04 </wgt>
<wgt id='1613'> +7.0738742e+04 </wgt>
<wgt id='1614'> +7.2614160e+04 </wgt>
<wgt id='1615'> +7.2342024e+04 </wgt>
<wgt id='1616'> +7.1962594e+04 </wgt>
<wgt id='1617'> +7.2298505e+04 </wgt>
<wgt id='1618'> +7.2840777e+04 </wgt>
<wgt id='1619'> +7.1728243e+04 </wgt>
<wgt id='1620'> +7.1180604e+04 </wgt>
<wgt id='1621'> +7.3201497e+04 </wgt>
<wgt id='1622'> +7.1932215e+04 </wgt>
<wgt id='1623'> +7.2310325e+04 </wgt>
<wgt id='1624'> +7.2664066e+04 </wgt>
<wgt id='1625'> +7.1025685e+04 </wgt>
<wgt id='1626'> +7.1706192e+04 </wgt>
<wgt id='1627'> +7.2790427e+04 </wgt>
<wgt id='1628'> +7.1668650e+04 </wgt>
<wgt id='1629'> +7.2899803e+04 </wgt>
<wgt id='1630'> +7.2223148e+04 </wgt>
<wgt id='1631'> +7.2226347e+04 </wgt>
<wgt id='1632'> +7.2132540e+04 </wgt>
<wgt id='1633'> +7.2528439e+04 </wgt>
<wgt id='1634'> +7.3192072e+04 </wgt>
<wgt id='1635'> +7.1652493e+04 </wgt>
<wgt id='1636'> +7.2405198e+04 </wgt>
<wgt id='1637'> +7.2700667e+04 </wgt>
<wgt id='1638'> +7.1932300e+04 </wgt>
<wgt id='1639'> +7.2678661e+04 </wgt>
<wgt id='1640'> +7.2134564e+04 </wgt>
<wgt id='1641'> +7.2077275e+04 </wgt>
<wgt id='1642'> +7.2302884e+04 </wgt>
<wgt id='1643'> +7.2144200e+04 </wgt>
<wgt id='1644'> +7.2681138e+04 </wgt>
<wgt id='1645'> +7.1637004e+04 </wgt>
<wgt id='1646'> +7.2751377e+04 </wgt>
<wgt id='1647'> +7.2398924e+04 </wgt>
<wgt id='1648'> +7.2426553e+04 </wgt>
<wgt id='1649'> +7.2080780e+04 </wgt>
<wgt id='1650'> +7.2393225e+04 </wgt>
<wgt id='1651'> +7.2687942e+04 </wgt>
<wgt id='1652'> +7.3221476e+04 </wgt>
<wgt id='1653'> +7.2874178e+04 </wgt>
<wgt id='1654'> +7.2155797e+04 </wgt>
<wgt id='1655'> +7.1805259e+04 </wgt>
<wgt id='1656'> +7.3522524e+04 </wgt>
<wgt id='1657'> +7.3005512e+04 </wgt>
<wgt id='1658'> +7.3012732e+04 </wgt>
<wgt id='1659'> +7.3757346e+04 </wgt>
<wgt id='1660'> +7.3357441e+04 </wgt>
<wgt id='1661'> +7.4103804e+04 </wgt>
<wgt id='1662'> +7.2581191e+04 </wgt>
<wgt id='1663'> +7.2760534e+04 </wgt>
<wgt id='1664'> +7.3017724e+04 </wgt>
<wgt id='1665'> +7.2761419e+04 </wgt>
<wgt id='1666'> +7.3456658e+04 </wgt>
<wgt id='1667'> +7.3419952e+04 </wgt>
<wgt id='1668'> +7.3450427e+04 </wgt>
<wgt id='1669'> +7.3947558e+04 </wgt>
<wgt id='1670'> +7.2568398e+04 </wgt>
<wgt id='1671'> +7.3886192e+04 </wgt>
<wgt id='1672'> +7.2833782e+04 </wgt>
<wgt id='1673'> +7.2947792e+04 </wgt>
<wgt id='1674'> +7.3854547e+04 </wgt>
<wgt id='1675'> +7.3401409e+04 </wgt>
<wgt id='1676'> +7.3512061e+04 </wgt>
<wgt id='1677'> +7.3496409e+04 </wgt>
<wgt id='1678'> +7.3331627e+04 </wgt>
<wgt id='1679'> +7.3040215e+04 </wgt>
<wgt id='1680'> +7.4633768e+04 </wgt>
<wgt id='1681'> +7.3414940e+04 </wgt>
<wgt id='1682'> +7.2949526e+04 </wgt>
<wgt id='1683'> +7.3189224e+04 </wgt>
<wgt id='1684'> +7.3697823e+04 </wgt>
<wgt id='1685'> +7.3534462e+04 </wgt>
<wgt id='1686'> +7.3206708e+04 </wgt>
<wgt id='1687'> +7.3859727e+04 </wgt>
<wgt id='1688'> +7.2893115e+04 </wgt>
<wgt id='1689'> +7.3608027e+04 </wgt>
<wgt id='1690'> +7.3557087e+04 </wgt>
<wgt id='1691'> +7.3386865e+04 </wgt>
<wgt id='1692'> +7.3015927e+04 </wgt>
<wgt id='1693'> +7.4640351e+04 </wgt>
<wgt id='1694'> +7.2904326e+04 </wgt>
<wgt id='1695'> +7.3499943e+04 </wgt>
<wgt id='1696'> +7.3292712e+04 </wgt>
<wgt id='1697'> +7.3272986e+04 </wgt>
<wgt id='1698'> +7.3642682e+04 </wgt>
<wgt id='1699'> +7.3193966e+04 </wgt>
<wgt id='1700'> +7.3486669e+04 </wgt>
<wgt id='1701'> +7.2713433e+04 </wgt>
<wgt id='1702'> +7.4511217e+04 </wgt>
<wgt id='1703'> +7.3462527e+04 </wgt>
<wgt id='1704'> +7.3820672e+04 </wgt>
<wgt id='1705'> +7.2249865e+04 </wgt>
<wgt id='1706'> +7.4335500e+04 </wgt>
<wgt id='1707'> +7.1330036e+04 </wgt>
<wgt id='1708'> +7.4995781e+04 </wgt>
<wgt id='1709'> +7.3124947e+04 </wgt>
<wgt id='1710'> +7.3893008e+04 </wgt>
<wgt id='1711'> +7.2776526e+04 </wgt>
<wgt id='1712'> +7.3418617e+04 </wgt>
<wgt id='1713'> +7.2732990e+04 </wgt>
<wgt id='1714'> +7.3769217e+04 </wgt>
<wgt id='1715'> +7.1730488e+04 </wgt>
<wgt id='1716'> +7.3380548e+04 </wgt>
<wgt id='1717'> +7.0383102e+04 </wgt>
<wgt id='1718'> +7.0309963e+04 </wgt>
<wgt id='1719'> +7.0476878e+04 </wgt>
<wgt id='1720'> +7.0074046e+04 </wgt>
<wgt id='1721'> +7.0665413e+04 </wgt>
<wgt id='1722'> +7.0207590e+04 </wgt>
<wgt id='1723'> +7.0670656e+04 </wgt>
<wgt id='1724'> +7.0639520e+04 </wgt>
<wgt id='1725'> +7.0174633e+04 </wgt>
<wgt id='1726'> +7.0423310e+04 </wgt>
<wgt id='1727'> +7.0341625e+04 </wgt>
<wgt id='1728'> +7.0195059e+04 </wgt>
<wgt id='1729'> +7.0564574e+04 </wgt>
<wgt id='1730'> +7.0378236e+04 </wgt>
<wgt id='1731'> +7.0386746e+04 </wgt>
<wgt id='1732'> +7.0497391e+04 </wgt>
<wgt id='1733'> +7.0497391e+04 </wgt>
<wgt id='1734'> +7.0575022e+04 </wgt>
<wgt id='1735'> +7.0250984e+04 </wgt>
<wgt id='1736'> +7.0371629e+04 </wgt>
<wgt id='1737'> +7.0401449e+04 </wgt>
<wgt id='1738'> +7.0406417e+04 </wgt>
<wgt id='1739'> +7.0331845e+04 </wgt>
<wgt id='1740'> +7.0284691e+04 </wgt>
<wgt id='1741'> +7.0618654e+04 </wgt>
<wgt id='1742'> +7.0349222e+04 </wgt>
<wgt id='1743'> +7.0432384e+04 </wgt>
<wgt id='1744'> +7.0480840e+04 </wgt>
<wgt id='1745'> +7.0116267e+04 </wgt>
<wgt id='1746'> +7.0262537e+04 </wgt>
<wgt id='1747'> +7.0442379e+04 </wgt>
<wgt id='1748'> +7.0722685e+04 </wgt>
<wgt id='1749'> +6.9330433e+04 </wgt>
<wgt id='1750'> +7.0597654e+04 </wgt>
<wgt id='1751'> +7.0153750e+04 </wgt>
<wgt id='1752'> +7.0174740e+04 </wgt>
<wgt id='1753'> +7.0663503e+04 </wgt>
<wgt id='1754'> +7.0492712e+04 </wgt>
<wgt id='1755'> +7.0321688e+04 </wgt>
<wgt id='1756'> +7.0166255e+04 </wgt>
<wgt id='1757'> +7.0944091e+04 </wgt>
<wgt id='1758'> +7.0632729e+04 </wgt>
<wgt id='1759'> +7.0127812e+04 </wgt>
<wgt id='1760'> +7.1173199e+04 </wgt>
<wgt id='1761'> +6.9660309e+04 </wgt>
<wgt id='1762'> +7.0335034e+04 </wgt>
<wgt id='1763'> +7.0101794e+04 </wgt>
<wgt id='1764'> +7.0251429e+04 </wgt>
<wgt id='1765'> +7.0917443e+04 </wgt>
<wgt id='1766'> +7.0250422e+04 </wgt>
<wgt id='1767'> +7.0558802e+04 </wgt>
<wgt id='1768'> +7.0268487e+04 </wgt>
<wgt id='1769'> +7.0443499e+04 </wgt>
<wgt id='1770'> +7.0235315e+04 </wgt>
<wgt id='1771'> +7.0242174e+04 </wgt>
<wgt id='1772'> +7.0614952e+04 </wgt>
<wgt id='1773'> +7.0126987e+04 </wgt>
<wgt id='1774'> +6.9765633e+04 </wgt>
<wgt id='1775'> +7.0785181e+04 </wgt>
<wgt id='1776'> +7.0113873e+04 </wgt>
<wgt id='1777'> +7.0512123e+04 </wgt>
<wgt id='1778'> +6.9885007e+04 </wgt>
<wgt id='1779'> +7.0410681e+04 </wgt>
<wgt id='1780'> +7.0854962e+04 </wgt>
<wgt id='1781'> +7.0541908e+04 </wgt>
<wgt id='1782'> +7.0383102e+04 </wgt>
<wgt id='1783'> +7.0415509e+04 </wgt>
<wgt id='1784'> +7.2004890e+04 </wgt>
<wgt id='1785'> +7.2189156e+04 </wgt>
<wgt id='1786'> +7.1335749e+04 </wgt>
<wgt id='1787'> +7.2090992e+04 </wgt>
<wgt id='1788'> +7.1767204e+04 </wgt>
<wgt id='1789'> +7.2061189e+04 </wgt>
<wgt id='1790'> +7.2270559e+04 </wgt>
<wgt id='1791'> +7.2087294e+04 </wgt>
<wgt id='1792'> +7.1105224e+04 </wgt>
<wgt id='1793'> +7.2284122e+04 </wgt>
<wgt id='1794'> +7.2135589e+04 </wgt>
<wgt id='1795'> +7.2043547e+04 </wgt>
<wgt id='1796'> +7.2079325e+04 </wgt>
<wgt id='1797'> +7.2350001e+04 </wgt>
<wgt id='1798'> +7.2206930e+04 </wgt>
<wgt id='1799'> +7.2605086e+04 </wgt>
<wgt id='1800'> +7.2249349e+04 </wgt>
<wgt id='1801'> +7.2931032e+04 </wgt>
<wgt id='1802'> +7.2642683e+04 </wgt>
<wgt id='1803'> +7.2013136e+04 </wgt>
<wgt id='1804'> +7.2117470e+04 </wgt>
<wgt id='1805'> +7.1600377e+04 </wgt>
<wgt id='1806'> +7.2056735e+04 </wgt>
<wgt id='1807'> +7.1995757e+04 </wgt>
<wgt id='1808'> +7.2077788e+04 </wgt>
<wgt id='1809'> +7.2124847e+04 </wgt>
<wgt id='1810'> +7.1981623e+04 </wgt>
<wgt id='1811'> +7.1975863e+04 </wgt>
<wgt id='1812'> +7.1864766e+04 </wgt>
<wgt id='1813'> +7.1658028e+04 </wgt>
<wgt id='1814'> +7.2176194e+04 </wgt>
<wgt id='1815'> +7.1867949e+04 </wgt>
<wgt id='1816'> +7.2002639e+04 </wgt>
<wgt id='1817'> +7.2063393e+04 </wgt>
<wgt id='1818'> +7.2068632e+04 </wgt>
<wgt id='1819'> +7.1817976e+04 </wgt>
<wgt id='1820'> +7.2036740e+04 </wgt>
<wgt id='1821'> +7.1745662e+04 </wgt>
<wgt id='1822'> +7.1945295e+04 </wgt>
<wgt id='1823'> +7.1979867e+04 </wgt>
<wgt id='1824'> +7.2321149e+04 </wgt>
<wgt id='1825'> +7.1863005e+04 </wgt>
<wgt id='1826'> +7.2555834e+04 </wgt>
<wgt id='1827'> +7.1689828e+04 </wgt>
<wgt id='1828'> +7.1754292e+04 </wgt>
<wgt id='1829'> +7.1621629e+04 </wgt>
<wgt id='1830'> +7.1690354e+04 </wgt>
<wgt id='1831'> +7.1685251e+04 </wgt>
<wgt id='1832'> +7.1818465e+04 </wgt>
<wgt id='1833'> +7.1557428e+04 </wgt>
<wgt id='1834'> +7.1618304e+04 </wgt>
<wgt id='1835'> +7.1751868e+04 </wgt>
<wgt id='1836'> +7.1953200e+04 </wgt>
<wgt id='1837'> +7.1421870e+04 </wgt>
<wgt id='1838'> +7.2052033e+04 </wgt>
<wgt id='1839'> +7.1325480e+04 </wgt>
<wgt id='1840'> +7.1444497e+04 </wgt>
<wgt id='1841'> +7.1932984e+04 </wgt>
<wgt id='1842'> +7.1620419e+04 </wgt>
<wgt id='1843'> +7.1762416e+04 </wgt>
<wgt id='1844'> +7.1732206e+04 </wgt>
<wgt id='1845'> +7.1624739e+04 </wgt>
<wgt id='1846'> +7.1790229e+04 </wgt>
<wgt id='1847'> +7.1571843e+04 </wgt>
<wgt id='1848'> +7.1337672e+04 </wgt>
<wgt id='1849'> +7.1933253e+04 </wgt>
<wgt id='1850'> +7.2018497e+04 </wgt>
<wgt id='1851'> +7.1352059e+04 </wgt>
<wgt id='1852'> +7.2339925e+04 </wgt>
<wgt id='1853'> +7.0892001e+04 </wgt>
<wgt id='1854'> +7.2403953e+04 </wgt>
<wgt id='1855'> +7.1059308e+04 </wgt>
<wgt id='1856'> +7.1101861e+04 </wgt>
<wgt id='1857'> +7.1087322e+04 </wgt>
<wgt id='1858'> +7.1120845e+04 </wgt>
<wgt id='1859'> +7.1045841e+04 </wgt>
<wgt id='1860'> +7.1102773e+04 </wgt>
<wgt id='1861'> +7.1109881e+04 </wgt>
<wgt id='1862'> +7.0826491e+04 </wgt>
<wgt id='1863'> +7.1103220e+04 </wgt>
<wgt id='1864'> +7.1156093e+04 </wgt>
<wgt id='1865'> +7.1075641e+04 </wgt>
<wgt id='1866'> +7.1086370e+04 </wgt>
<wgt id='1867'> +7.1092977e+04 </wgt>
<wgt id='1868'> +7.1140456e+04 </wgt>
<wgt id='1869'> +7.1163007e+04 </wgt>
<wgt id='1870'> +7.1030261e+04 </wgt>
<wgt id='1871'> +7.1090729e+04 </wgt>
<wgt id='1872'> +7.1005852e+04 </wgt>
<wgt id='1873'> +7.1103309e+04 </wgt>
<wgt id='1874'> +7.1112273e+04 </wgt>
<wgt id='1875'> +7.1252479e+04 </wgt>
<wgt id='1876'> +7.1017539e+04 </wgt>
<wgt id='1877'> +7.1006320e+04 </wgt>
<wgt id='1878'> +7.0834835e+04 </wgt>
<wgt id='1879'> +7.1386730e+04 </wgt>
<wgt id='1880'> +7.1332275e+04 </wgt>
<wgt id='1881'> +7.1242116e+04 </wgt>
<wgt id='1882'> +7.1272404e+04 </wgt>
<wgt id='1883'> +7.1169986e+04 </wgt>
<wgt id='1884'> +7.0753115e+04 </wgt>
<wgt id='1885'> +7.0591143e+04 </wgt>
<wgt id='1886'> +8.6490822e+04 </wgt>
<wgt id='1887'> +9.2275740e+04 </wgt>
<wgt id='1888'> +7.7098031e+04 </wgt>
<wgt id='1889'> +8.6943296e+04 </wgt>
</rwgt>
</event>
<event npLO=" -1 " npNLO=" 0 ">
 6      0 +7.4519530e+04 4.04076760e+01 7.55820760e-03 1.20087010e-01
        2 -1    0    0  502    0 +0.0000000000e+00 +0.0000000000e+00 +3.1863441065e+02 3.1863441065e+02 0.0000000000e+00 0.0000e+00 -1.0000e+00
       -1 -1    0    0    0  501 +0.0000000000e+00 +0.0000000000e+00 -6.0183780822e+00 6.0183780822e+00 0.0000000000e+00 0.0000e+00 1.0000e+00
       24  2    1    2    0    0 -2.4569573468e-02 +4.2577467245e+00 +2.7409247350e+02 2.8589464618e+02 8.1184577811e+01 0.0000e+00 0.0000e+00
      -11  1    3    3    0    0 -2.2232171738e+01 -3.1667074400e+01 +1.1750217056e+02 1.2370866238e+02 0.0000000000e+00 0.0000e+00 1.0000e+00
       12  1    3    3    0    0 +2.2207602165e+01 +3.5924821125e+01 +1.5659030294e+02 1.6218598380e+02 0.0000000000e+00 0.0000e+00 -1.0000e+00
       21  1    1    2  502  501 +2.4569573468e-02 -4.2577467245e+00 +3.8523559066e+01 3.8758142550e+01 0.0000000000e+00 0.0000e+00 1.0000e+00
#aMCatNLO 2  0  0  1  2 0.45872066E+01 0.00000000E+00 -9  5  0 0.00000000E+00 0.00000000E+00 0.00000000E+00 0.00000000E+00 0.00000000E+00
<rwgt>
<wgt id='1001'> +7.4519530e+04 </wgt>
<wgt id='1002'> +6.7352065e+04 </wgt>
<wgt id='1003'> +8.3446655e+04 </wgt>
<wgt id='1004'> +8.2922385e+04 </wgt>
<wgt id='1005'> +7.4946721e+04 </wgt>
<wgt id='1006'> +9.2856146e+04 </wgt>
<wgt id='1007'> +6.5417141e+04 </wgt>
<wgt id='1008'> +5.9125172e+04 </wgt>
<wgt id='1009'> +7.3253846e+04 </wgt>
<wgt id='1010'> +7.4519530e+04 </wgt>
<wgt id='1011'> +7.4518110e+04 </wgt>
<wgt id='1012'> +7.4563958e+04 </wgt>
<wgt id='1013'> +7.4282353e+04 </wgt>
<wgt id='1014'> +7.4704148e+04 </wgt>
<wgt id='1015'> +7.4317496e+04 </wgt>
<wgt id='1016'> +7.4499742e+04 </wgt>
<wgt id='1017'> +7.4607607e+04 </wgt>
<wgt id='1018'> +7.4335183e+04 </wgt>
<wgt id='1019'> +7.4660993e+04 </wgt>
<wgt id='1020'> +7.4316345e+04 </wgt>
<wgt id='1021'> +7.4511076e+04 </wgt>
<wgt id='1022'> +7.4561031e+04 </wgt>
<wgt id='1023'> +7.4645103e+04 </wgt>
<wgt id='1024'> +7.4493750e+04 </wgt>
<wgt id='1025'> +7.4990986e+04 </wgt>
<wgt id='1026'> +7.4327639e+04 </wgt>
<wgt id='1027'> +7.4529855e+04 </wgt>
<wgt id='1028'> +7.4280635e+04 </wgt>
<wgt id='1029'> +7.4651014e+04 </wgt>
<wgt id='1030'> +7.5036078e+04 </wgt>
<wgt id='1031'> +7.4559034e+04 </wgt>
<wgt id='1032'> +7.4697194e+04 </wgt>
<wgt id='1033'> +7.4190656e+04 </wgt>
<wgt id='1034'> +7.4469978e+04 </wgt>
<wgt id='1035'> +7.4245126e+04 </wgt>
<wgt id='1036'> +7.4294322e+04 </wgt>
<wgt id='1037'> +7.5142100e+04 </wgt>
<wgt id='1038'> +7.4762886e+04 </wgt>
<wgt id='1039'> +7.4545328e+04 </wgt>
<wgt id='1040'> +7.4458066e+04 </wgt>
<wgt id='1041'> +7.4766376e+04 </wgt>
<wgt id='1042'> +7.4608066e+04 </wgt>
<wgt id='1043'> +7.4520936e+04 </wgt>
<wgt id='1044'> +7.4558561e+04 </wgt>
<wgt id='1045'> +7.4609014e+04 </wgt>
<wgt id='1046'> +7.4460459e+04 </wgt>
<wgt id='1047'> +7.4470845e+04 </wgt>
<wgt id='1048'> +7.4698652e+04 </wgt>
<wgt id='1049'> +7.4617457e+04 </wgt>
<wgt id='1050'> +7.4612179e+04 </wgt>
<wgt id='1051'> +7.4742624e+04 </wgt>
<wgt id='1052'> +7.4622938e+04 </wgt>
<wgt id='1053'> +7.4209839e+04 </wgt>
<wgt id='1054'> +7.4483893e+04 </wgt>
<wgt id='1055'> +7.4563192e+04 </wgt>
<wgt id='1056'> +7.4653190e+04 </wgt>
<wgt id='1057'> +7.4391685e+04 </wgt>
<wgt id='1058'> +7.4549169e+04 </wgt>
<wgt id='1059'> +7.4473112e+04 </wgt>
<wgt id='1060'> +7.4463855e+04 </wgt>
<wgt id='1061'> +7.4535976e+04 </wgt>
<wgt id='1062'> +7.4674936e+04 </wgt>
<wgt id='1063'> +7.4456126e+04 </wgt>
<wgt id='1064'> +7.4441012e+04 </wgt>
<wgt id='1065'> +7.4519159e+04 </wgt>
<wgt id='1066'> +7.4670152e+04 </wgt>
<wgt id='1067'> +7.4521802e+04 </wgt>
<wgt id='1068'> +7.4564172e+04 </wgt>
<wgt id='1069'> +7.4474216e+04 </wgt>
<wgt id='1070'> +7.4504407e+04 </wgt>
<wgt id='1071'> +7.4503250e+04 </wgt>
<wgt id='1072'> +7.4439849e+04 </wgt>
<wgt id='1073'> +7.4589820e+04 </wgt>
<wgt id='1074'> +7.4503949e+04 </wgt>
<wgt id='1075'> +7.4516743e+04 </wgt>
<wgt id='1076'> +7.4628259e+04 </wgt>
<wgt id='1077'> +7.4537144e+04 </wgt>
<wgt id='1078'> +7.4579152e+04 </wgt>
<wgt id='1079'> +7.4559293e+04 </wgt>
<wgt id='1080'> +7.4442466e+04 </wgt>
<wgt id='1081'> +7.4492183e+04 </wgt>
<wgt id='1082'> +7.4582758e+04 </wgt>
<wgt id='1083'> +7.4493262e+04 </wgt>
<wgt id='1084'> +7.4600626e+04 </wgt>
<wgt id='1085'> +7.4461171e+04 </wgt>
<wgt id='1086'> +7.4503403e+04 </wgt>
<wgt id='1087'> +7.4508418e+04 </wgt>
<wgt id='1088'> +7.4499932e+04 </wgt>
<wgt id='1089'> +7.4442170e+04 </wgt>
<wgt id='1090'> +7.4590788e+04 </wgt>
<wgt id='1091'> +7.4514483e+04 </wgt>
<wgt id='1092'> +7.4473477e+04 </wgt>
<wgt id='1093'> +7.4576595e+04 </wgt>
<wgt id='1094'> +7.4525205e+04 </wgt>
<wgt id='1095'> +7.4541495e+04 </wgt>
<wgt id='1096'> +7.4518709e+04 </wgt>
<wgt id='1097'> +7.4588309e+04 </wgt>
<wgt id='1098'> +7.4491253e+04 </wgt>
<wgt id='1099'> +7.4569268e+04 </wgt>
<wgt id='1100'> +7.4501626e+04 </wgt>
<wgt id='1101'> +7.4529740e+04 </wgt>
<wgt id='1102'> +7.4537626e+04 </wgt>
<wgt id='1103'> +7.4574320e+04 </wgt>
<wgt id='1104'> +7.4487962e+04 </wgt>
<wgt id='1105'> +7.4522037e+04 </wgt>
<wgt id='1106'> +7.4502887e+04 </wgt>
<wgt id='1107'> +7.4482481e+04 </wgt>
<wgt id='1108'> +7.4512549e+04 </wgt>
<wgt id='1109'> +7.4499723e+04 </wgt>
<wgt id='1110'> +7.4519522e+04 </wgt>
<wgt id='1111'> +7.2668761e+04 </wgt>
<wgt id='1112'> +7.6377686e+04 </wgt>
<wgt id='1113'> +7.4519522e+04 </wgt>
<wgt id='1114'> +7.7295810e+04 </wgt>
<wgt id='1115'> +7.4743028e+04 </wgt>
<wgt id='1116'> +6.9821721e+04 </wgt>
<wgt id='1117'> +7.3113383e+04 </wgt>
<wgt id='1118'> +7.3686728e+04 </wgt>
<wgt id='1119'> +7.6610330e+04 </wgt>
<wgt id='1120'> +7.5768502e+04 </wgt>
<wgt id='1121'> +7.2275659e+04 </wgt>
<wgt id='1122'> +7.3157151e+04 </wgt>
<wgt id='1123'> +7.3408512e+04 </wgt>
<wgt id='1124'> +7.4192562e+04 </wgt>
<wgt id='1125'> +7.3440121e+04 </wgt>
<wgt id='1126'> +7.4611242e+04 </wgt>
<wgt id='1127'> +7.3973469e+04 </wgt>
<wgt id='1128'> +7.5087412e+04 </wgt>
<wgt id='1129'> +7.6068892e+04 </wgt>
<wgt id='1130'> +7.6807827e+04 </wgt>
<wgt id='1131'> +7.4455879e+04 </wgt>
<wgt id='1132'> +7.5455957e+04 </wgt>
<wgt id='1133'> +7.2628900e+04 </wgt>
<wgt id='1134'> +7.2663369e+04 </wgt>
<wgt id='1135'> +7.5409709e+04 </wgt>
<wgt id='1136'> +7.5569062e+04 </wgt>
<wgt id='1137'> +7.4736334e+04 </wgt>
<wgt id='1138'> +7.4146086e+04 </wgt>
<wgt id='1139'> +7.4886424e+04 </wgt>
<wgt id='1140'> +7.7372808e+04 </wgt>
<wgt id='1141'> +7.4860935e+04 </wgt>
<wgt id='1142'> +7.7002047e+04 </wgt>
<wgt id='1143'> +7.5612644e+04 </wgt>
<wgt id='1144'> +7.3633472e+04 </wgt>
<wgt id='1145'> +7.3402857e+04 </wgt>
<wgt id='1146'> +7.5775103e+04 </wgt>
<wgt id='1147'> +7.3543005e+04 </wgt>
<wgt id='1148'> +7.4847055e+04 </wgt>
<wgt id='1149'> +7.4439559e+04 </wgt>
<wgt id='1150'> +7.4637533e+04 </wgt>
<wgt id='1151'> +7.4097345e+04 </wgt>
<wgt id='1152'> +7.3695908e+04 </wgt>
<wgt id='1153'> +7.4045601e+04 </wgt>
<wgt id='1154'> +7.4313375e+04 </wgt>
<wgt id='1155'> +7.6017594e+04 </wgt>
<wgt id='1156'> +7.5405081e+04 </wgt>
<wgt id='1157'> +7.5108631e+04 </wgt>
<wgt id='1158'> +7.4180902e+04 </wgt>
<wgt id='1159'> +7.5788412e+04 </wgt>
<wgt id='1160'> +7.5635358e+04 </wgt>
<wgt id='1161'> +7.2965614e+04 </wgt>
<wgt id='1162'> +7.6721993e+04 </wgt>
<wgt id='1163'> +7.5794423e+04 </wgt>
<wgt id='1164'> +7.3073480e+04 </wgt>
<wgt id='1165'> +7.4004826e+04 </wgt>
<wgt id='1166'> +7.5786779e+04 </wgt>
<wgt id='1167'> +7.6272788e+04 </wgt>
<wgt id='1168'> +7.3097208e+04 </wgt>
<wgt id='1169'> +7.4454788e+04 </wgt>
<wgt id='1170'> +7.6572778e+04 </wgt>
<wgt id='1171'> +7.3863317e+04 </wgt>
<wgt id='1172'> +7.4663097e+04 </wgt>
<wgt id='1173'> +7.3866169e+04 </wgt>
<wgt id='1174'> +7.5605289e+04 </wgt>
<wgt id='1175'> +7.5199627e+04 </wgt>
<wgt id='1176'> +7.5754128e+04 </wgt>
<wgt id='1177'> +7.1970616e+04 </wgt>
<wgt id='1178'> +7.5783391e+04 </wgt>
<wgt id='1179'> +7.3784299e+04 </wgt>
<wgt id='1180'> +7.4624543e+04 </wgt>
<wgt id='1181'> +7.6249623e+04 </wgt>
<wgt id='1182'> +7.5948468e+04 </wgt>
<wgt id='1183'> +7.4991591e+04 </wgt>
<wgt id='1184'> +7.3371563e+04 </wgt>
<wgt id='1185'> +7.7124468e+04 </wgt>
<wgt id='1186'> +7.0188778e+04 </wgt>
<wgt id='1187'> +7.2003846e+04 </wgt>
<wgt id='1188'> +7.3968312e+04 </wgt>
<wgt id='1189'> +7.5214351e+04 </wgt>
<wgt id='1190'> +7.3460828e+04 </wgt>
<wgt id='1191'> +7.5103812e+04 </wgt>
<wgt id='1192'> +7.4124214e+04 </wgt>
<wgt id='1193'> +7.4968357e+04 </wgt>
<wgt id='1194'> +7.4387614e+04 </wgt>
<wgt id='1195'> +7.6068892e+04 </wgt>
<wgt id='1196'> +7.3725406e+04 </wgt>
<wgt id='1197'> +7.4051242e+04 </wgt>
<wgt id='1198'> +7.3809709e+04 </wgt>
<wgt id='1199'> +7.6990880e+04 </wgt>
<wgt id='1200'> +7.3857297e+04 </wgt>
<wgt id='1201'> +7.5692491e+04 </wgt>
<wgt id='1202'> +7.1105958e+04 </wgt>
<wgt id='1203'> +7.3741471e+04 </wgt>
<wgt id='1204'> +7.4783218e+04 </wgt>
<wgt id='1205'> +7.2902582e+04 </wgt>
<wgt id='1206'> +7.4138254e+04 </wgt>
<wgt id='1207'> +7.5772330e+04 </wgt>
<wgt id='1208'> +7.4020207e+04 </wgt>
<wgt id='1209'> +7.4251701e+04 </wgt>
<wgt id='1210'> +7.4085028e+04 </wgt>
<wgt id='1211'> +7.3068960e+04 </wgt>
<wgt id='1212'> +7.3061844e+04 </wgt>
<wgt id='1213'> +7.4365855e+04 </wgt>
<wgt id='1214'> +7.4518533e+04 </wgt>
<wgt id='1215'> +6.6285431e+04 </wgt>
<wgt id='1216'> +6.7749055e+04 </wgt>
<wgt id='1217'> +6.9218868e+04 </wgt>
<wgt id='1218'> +7.0989049e+04 </wgt>
<wgt id='1219'> +7.3922732e+04 </wgt>
<wgt id='1220'> +7.5444651e+04 </wgt>
<wgt id='1221'> +7.8305263e+04 </wgt>
<wgt id='1222'> +7.9831706e+04 </wgt>
<wgt id='1223'> +7.3185333e+04 </wgt>
<wgt id='1224'> +7.3243027e+04 </wgt>
<wgt id='1225'> +7.3297438e+04 </wgt>
<wgt id='1226'> +7.3090051e+04 </wgt>
<wgt id='1227'> +7.3565436e+04 </wgt>
<wgt id='1228'> +7.3238358e+04 </wgt>
<wgt id='1229'> +7.2971136e+04 </wgt>
<wgt id='1230'> +7.3339753e+04 </wgt>
<wgt id='1231'> +7.3345032e+04 </wgt>
<wgt id='1232'> +7.3311230e+04 </wgt>
<wgt id='1233'> +7.2848426e+04 </wgt>
<wgt id='1234'> +7.3093272e+04 </wgt>
<wgt id='1235'> +7.3249777e+04 </wgt>
<wgt id='1236'> +7.3469031e+04 </wgt>
<wgt id='1237'> +7.3170006e+04 </wgt>
<wgt id='1238'> +7.2932304e+04 </wgt>
<wgt id='1239'> +7.3644365e+04 </wgt>
<wgt id='1240'> +7.2956371e+04 </wgt>
<wgt id='1241'> +7.3393664e+04 </wgt>
<wgt id='1242'> +7.3254331e+04 </wgt>
<wgt id='1243'> +7.2987100e+04 </wgt>
<wgt id='1244'> +7.3464954e+04 </wgt>
<wgt id='1245'> +7.3128822e+04 </wgt>
<wgt id='1246'> +7.2892807e+04 </wgt>
<wgt id='1247'> +7.3647330e+04 </wgt>
<wgt id='1248'> +7.2994509e+04 </wgt>
<wgt id='1249'> +7.3248681e+04 </wgt>
<wgt id='1250'> +7.3119011e+04 </wgt>
<wgt id='1251'> +7.3165608e+04 </wgt>
<wgt id='1252'> +7.3744593e+04 </wgt>
<wgt id='1253'> +7.3157508e+04 </wgt>
<wgt id='1254'> +7.2891845e+04 </wgt>
<wgt id='1255'> +7.3309294e+04 </wgt>
<wgt id='1256'> +7.3099800e+04 </wgt>
<wgt id='1257'> +7.3257268e+04 </wgt>
<wgt id='1258'> +7.3314346e+04 </wgt>
<wgt id='1259'> +7.3218969e+04 </wgt>
<wgt id='1260'> +7.3096794e+04 </wgt>
<wgt id='1261'> +7.3207343e+04 </wgt>
<wgt id='1262'> +7.3123331e+04 </wgt>
<wgt id='1263'> +7.3164560e+04 </wgt>
<wgt id='1264'> +7.3107873e+04 </wgt>
<wgt id='1265'> +7.3105425e+04 </wgt>
<wgt id='1266'> +7.3148152e+04 </wgt>
<wgt id='1267'> +7.3167926e+04 </wgt>
<wgt id='1268'> +7.3208045e+04 </wgt>
<wgt id='1269'> +7.3160462e+04 </wgt>
<wgt id='1270'> +7.3158012e+04 </wgt>
<wgt id='1271'> +7.3309104e+04 </wgt>
<wgt id='1272'> +7.3328764e+04 </wgt>
<wgt id='1273'> +7.3124835e+04 </wgt>
<wgt id='1274'> +7.3083484e+04 </wgt>
<wgt id='1275'> +7.3150141e+04 </wgt>
<wgt id='1276'> +7.3076681e+04 </wgt>
<wgt id='1277'> +7.3248006e+04 </wgt>
<wgt id='1278'> +7.3251275e+04 </wgt>
<wgt id='1279'> +7.3324712e+04 </wgt>
<wgt id='1280'> +7.3119953e+04 </wgt>
<wgt id='1281'> +7.3076041e+04 </wgt>
<wgt id='1282'> +7.3171256e+04 </wgt>
<wgt id='1283'> +7.3264214e+04 </wgt>
<wgt id='1284'> +7.3188143e+04 </wgt>
<wgt id='1285'> +7.3179784e+04 </wgt>
<wgt id='1286'> +7.3206763e+04 </wgt>
<wgt id='1287'> +7.3231989e+04 </wgt>
<wgt id='1288'> +7.3242641e+04 </wgt>
<wgt id='1289'> +7.3089002e+04 </wgt>
<wgt id='1290'> +7.3139374e+04 </wgt>
<wgt id='1291'> +7.3213364e+04 </wgt>
<wgt id='1292'> +7.3097933e+04 </wgt>
<wgt id='1293'> +7.3186386e+04 </wgt>
<wgt id='1294'> +7.3202816e+04 </wgt>
<wgt id='1295'> +7.3300696e+04 </wgt>
<wgt id='1296'> +7.3156549e+04 </wgt>
<wgt id='1297'> +7.3183751e+04 </wgt>
<wgt id='1298'> +7.3060441e+04 </wgt>
<wgt id='1299'> +7.3151649e+04 </wgt>
<wgt id='1300'> +7.3223570e+04 </wgt>
<wgt id='1301'> +7.3196672e+04 </wgt>
<wgt id='1302'> +7.3134439e+04 </wgt>
<wgt id='1303'> +7.3227299e+04 </wgt>
<wgt id='1304'> +7.3255617e+04 </wgt>
<wgt id='1305'> +7.3220489e+04 </wgt>
<wgt id='1306'> +7.3264130e+04 </wgt>
<wgt id='1307'> +7.3186563e+04 </wgt>
<wgt id='1308'> +7.3232543e+04 </wgt>
<wgt id='1309'> +7.3151291e+04 </wgt>
<wgt id='1310'> +7.3188019e+04 </wgt>
<wgt id='1311'> +7.3141692e+04 </wgt>
<wgt id='1312'> +7.3157583e+04 </wgt>
<wgt id='1313'> +7.3206462e+04 </wgt>
<wgt id='1314'> +7.3187129e+04 </wgt>
<wgt id='1315'> +7.3192994e+04 </wgt>
<wgt id='1316'> +7.3219874e+04 </wgt>
<wgt id='1317'> +7.3207606e+04 </wgt>
<wgt id='1318'> +7.3240909e+04 </wgt>
<wgt id='1319'> +7.3205278e+04 </wgt>
<wgt id='1320'> +7.3220691e+04 </wgt>
<wgt id='1321'> +7.3132361e+04 </wgt>
<wgt id='1322'> +7.3258519e+04 </wgt>
<wgt id='1323'> +7.3135625e+04 </wgt>
<wgt id='1324'> +7.1424987e+04 </wgt>
<wgt id='1325'> +7.5096294e+04 </wgt>
<wgt id='1326'> +7.1651017e+04 </wgt>
<wgt id='1327'> +6.8413270e+04 </wgt>
<wgt id='1328'> +7.4488919e+04 </wgt>
<wgt id='1329'> +7.3616974e+04 </wgt>
<wgt id='1330'> +7.4833528e+04 </wgt>
<wgt id='1331'> +7.5253941e+04 </wgt>
<wgt id='1332'> +7.4022096e+04 </wgt>
<wgt id='1333'> +7.4291089e+04 </wgt>
<wgt id='1334'> +7.2607570e+04 </wgt>
<wgt id='1335'> +7.4569920e+04 </wgt>
<wgt id='1336'> +7.5023345e+04 </wgt>
<wgt id='1337'> +7.4181424e+04 </wgt>
<wgt id='1338'> +7.5289033e+04 </wgt>
<wgt id='1339'> +7.4926983e+04 </wgt>
<wgt id='1340'> +7.3103528e+04 </wgt>
<wgt id='1341'> +7.3799445e+04 </wgt>
<wgt id='1342'> +7.4979369e+04 </wgt>
<wgt id='1343'> +7.5388139e+04 </wgt>
<wgt id='1344'> +7.4615309e+04 </wgt>
<wgt id='1345'> +7.5492926e+04 </wgt>
<wgt id='1346'> +7.5532168e+04 </wgt>
<wgt id='1347'> +7.5049612e+04 </wgt>
<wgt id='1348'> +7.2910465e+04 </wgt>
<wgt id='1349'> +7.5268590e+04 </wgt>
<wgt id='1350'> +7.4047742e+04 </wgt>
<wgt id='1351'> +7.4218650e+04 </wgt>
<wgt id='1352'> +7.5854356e+04 </wgt>
<wgt id='1353'> +7.6045834e+04 </wgt>
<wgt id='1354'> +7.4506907e+04 </wgt>
<wgt id='1355'> +7.4639475e+04 </wgt>
<wgt id='1356'> +7.3997827e+04 </wgt>
<wgt id='1357'> +7.4456792e+04 </wgt>
<wgt id='1358'> +7.4444831e+04 </wgt>
<wgt id='1359'> +7.4452098e+04 </wgt>
<wgt id='1360'> +7.5124506e+04 </wgt>
<wgt id='1361'> +7.5574389e+04 </wgt>
<wgt id='1362'> +7.5841410e+04 </wgt>
<wgt id='1363'> +7.5048761e+04 </wgt>
<wgt id='1364'> +7.4785929e+04 </wgt>
<wgt id='1365'> +7.4907385e+04 </wgt>
<wgt id='1366'> +7.4314832e+04 </wgt>
<wgt id='1367'> +7.5784265e+04 </wgt>
<wgt id='1368'> +7.4199044e+04 </wgt>
<wgt id='1369'> +7.3304395e+04 </wgt>
<wgt id='1370'> +7.3664573e+04 </wgt>
<wgt id='1371'> +7.5087334e+04 </wgt>
<wgt id='1372'> +7.5496951e+04 </wgt>
<wgt id='1373'> +7.3966770e+04 </wgt>
<wgt id='1374'> +7.4662976e+04 </wgt>
<wgt id='1375'> +7.4295038e+04 </wgt>
<wgt id='1376'> +7.4654379e+04 </wgt>
<wgt id='1377'> +7.4309784e+04 </wgt>
<wgt id='1378'> +7.3125104e+04 </wgt>
<wgt id='1379'> +7.4498282e+04 </wgt>
<wgt id='1380'> +7.4880364e+04 </wgt>
<wgt id='1381'> +7.4821887e+04 </wgt>
<wgt id='1382'> +7.3865814e+04 </wgt>
<wgt id='1383'> +7.4458568e+04 </wgt>
<wgt id='1384'> +7.4762676e+04 </wgt>
<wgt id='1385'> +7.3806809e+04 </wgt>
<wgt id='1386'> +7.4915010e+04 </wgt>
<wgt id='1387'> +7.2761478e+04 </wgt>
<wgt id='1388'> +7.4730526e+04 </wgt>
<wgt id='1389'> +7.4065903e+04 </wgt>
<wgt id='1390'> +7.3683133e+04 </wgt>
<wgt id='1391'> +7.4337699e+04 </wgt>
<wgt id='1392'> +7.4030863e+04 </wgt>
<wgt id='1393'> +7.2740300e+04 </wgt>
<wgt id='1394'> +7.4907385e+04 </wgt>
<wgt id='1395'> +7.5452313e+04 </wgt>
<wgt id='1396'> +7.2969778e+04 </wgt>
<wgt id='1397'> +7.4874296e+04 </wgt>
<wgt id='1398'> +7.5287555e+04 </wgt>
<wgt id='1399'> +7.4772948e+04 </wgt>
<wgt id='1400'> +7.5265619e+04 </wgt>
<wgt id='1401'> +7.4867653e+04 </wgt>
<wgt id='1402'> +7.4533749e+04 </wgt>
<wgt id='1403'> +7.4755633e+04 </wgt>
<wgt id='1404'> +7.5003876e+04 </wgt>
<wgt id='1405'> +7.3967893e+04 </wgt>
<wgt id='1406'> +7.3138856e+04 </wgt>
<wgt id='1407'> +7.5268641e+04 </wgt>
<wgt id='1408'> +7.4084800e+04 </wgt>
<wgt id='1409'> +7.2943284e+04 </wgt>
<wgt id='1410'> +7.5118235e+04 </wgt>
<wgt id='1411'> +7.5362379e+04 </wgt>
<wgt id='1412'> +7.4832570e+04 </wgt>
<wgt id='1413'> +7.5532619e+04 </wgt>
<wgt id='1414'> +7.3699699e+04 </wgt>
<wgt id='1415'> +7.3593505e+04 </wgt>
<wgt id='1416'> +7.4189287e+04 </wgt>
<wgt id='1417'> +7.4188186e+04 </wgt>
<wgt id='1418'> +7.5139051e+04 </wgt>
<wgt id='1419'> +7.3995592e+04 </wgt>
<wgt id='1420'> +7.4181884e+04 </wgt>
<wgt id='1421'> +7.4584926e+04 </wgt>
<wgt id='1422'> +7.4582286e+04 </wgt>
<wgt id='1423'> +7.5570394e+04 </wgt>
<wgt id='1424'> +7.2442930e+04 </wgt>
<wgt id='1425'> +7.3807032e+04 </wgt>
<wgt id='1426'> +7.3873533e+04 </wgt>
<wgt id='1427'> +7.5248391e+04 </wgt>
<wgt id='1428'> +7.4815667e+04 </wgt>
<wgt id='1429'> +7.3776619e+04 </wgt>
<wgt id='1430'> +7.5140321e+04 </wgt>
<wgt id='1431'> +7.4445444e+04 </wgt>
<wgt id='1432'> +7.4556853e+04 </wgt>
<wgt id='1433'> +7.4536716e+04 </wgt>
<wgt id='1434'> +7.4421437e+04 </wgt>
<wgt id='1435'> +7.4301013e+04 </wgt>
<wgt id='1436'> +7.4216680e+04 </wgt>
<wgt id='1437'> +7.4810692e+04 </wgt>
<wgt id='1438'> +7.4631340e+04 </wgt>
<wgt id='1439'> +7.4252339e+04 </wgt>
<wgt id='1440'> +7.4441365e+04 </wgt>
<wgt id='1441'> +7.4329219e+04 </wgt>
<wgt id='1442'> +7.4586400e+04 </wgt>
<wgt id='1443'> +7.4347791e+04 </wgt>
<wgt id='1444'> +7.4182467e+04 </wgt>
<wgt id='1445'> +7.4533394e+04 </wgt>
<wgt id='1446'> +7.4285401e+04 </wgt>
<wgt id='1447'> +7.4251986e+04 </wgt>
<wgt id='1448'> +7.4575671e+04 </wgt>
<wgt id='1449'> +7.4457644e+04 </wgt>
<wgt id='1450'> +7.4358637e+04 </wgt>
<wgt id='1451'> +7.4323151e+04 </wgt>
<wgt id='1452'> +7.4313863e+04 </wgt>
<wgt id='1453'> +7.4444985e+04 </wgt>
<wgt id='1454'> +7.4361567e+04 </wgt>
<wgt id='1455'> +7.4535508e+04 </wgt>
<wgt id='1456'> +7.4452818e+04 </wgt>
<wgt id='1457'> +7.4482504e+04 </wgt>
<wgt id='1458'> +7.4291516e+04 </wgt>
<wgt id='1459'> +7.4279824e+04 </wgt>
<wgt id='1460'> +7.4467829e+04 </wgt>
<wgt id='1461'> +7.4410595e+04 </wgt>
<wgt id='1462'> +7.4434995e+04 </wgt>
<wgt id='1463'> +7.4458543e+04 </wgt>
<wgt id='1464'> +7.4372428e+04 </wgt>
<wgt id='1465'> +7.4470875e+04 </wgt>
<wgt id='1466'> +7.4438437e+04 </wgt>
<wgt id='1467'> +7.4514289e+04 </wgt>
<wgt id='1468'> +7.4455858e+04 </wgt>
<wgt id='1469'> +7.4439903e+04 </wgt>
<wgt id='1470'> +7.4447544e+04 </wgt>
<wgt id='1471'> +7.4426226e+04 </wgt>
<wgt id='1472'> +7.4439493e+04 </wgt>
<wgt id='1473'> +7.4486966e+04 </wgt>
<wgt id='1474'> +7.4479453e+04 </wgt>
<wgt id='1475'> +7.4421472e+04 </wgt>
<wgt id='1476'> +7.4430003e+04 </wgt>
<wgt id='1477'> +7.4441637e+04 </wgt>
<wgt id='1478'> +7.4427210e+04 </wgt>
<wgt id='1479'> +7.4478403e+04 </wgt>
<wgt id='1480'> +7.4444289e+04 </wgt>
<wgt id='1481'> +7.4460461e+04 </wgt>
<wgt id='1482'> +7.3776619e+04 </wgt>
<wgt id='1483'> +7.5140321e+04 </wgt>
<wgt id='1484'> +7.4555268e+04 </wgt>
<wgt id='1485'> +7.4883767e+04 </wgt>
<wgt id='1486'> +7.4629095e+04 </wgt>
<wgt id='1487'> +7.4998971e+04 </wgt>
<wgt id='1488'> +7.4833795e+04 </wgt>
<wgt id='1489'> +7.4851662e+04 </wgt>
<wgt id='1490'> +7.4022673e+04 </wgt>
<wgt id='1491'> +7.3819420e+04 </wgt>
<wgt id='1492'> +7.3804378e+04 </wgt>
<wgt id='1493'> +7.4849551e+04 </wgt>
<wgt id='1494'> +7.3868114e+04 </wgt>
<wgt id='1495'> +7.4322596e+04 </wgt>
<wgt id='1496'> +7.4390621e+04 </wgt>
<wgt id='1497'> +7.3526091e+04 </wgt>
<wgt id='1498'> +7.5383086e+04 </wgt>
<wgt id='1499'> +7.4934614e+04 </wgt>
<wgt id='1500'> +7.3340471e+04 </wgt>
<wgt id='1501'> +7.4352553e+04 </wgt>
<wgt id='1502'> +7.5446252e+04 </wgt>
<wgt id='1503'> +7.3781502e+04 </wgt>
<wgt id='1504'> +7.4320503e+04 </wgt>
<wgt id='1505'> +7.4124267e+04 </wgt>
<wgt id='1506'> +7.4932214e+04 </wgt>
<wgt id='1507'> +7.4198979e+04 </wgt>
<wgt id='1508'> +7.3772167e+04 </wgt>
<wgt id='1509'> +7.3833549e+04 </wgt>
<wgt id='1510'> +7.4220386e+04 </wgt>
<wgt id='1511'> +7.4042323e+04 </wgt>
<wgt id='1512'> +7.4845665e+04 </wgt>
<wgt id='1513'> +7.4036936e+04 </wgt>
<wgt id='1514'> +7.5071756e+04 </wgt>
<wgt id='1515'> +7.4421680e+04 </wgt>
<wgt id='1516'> +7.3398155e+04 </wgt>
<wgt id='1517'> +7.4888137e+04 </wgt>
<wgt id='1518'> +7.5150754e+04 </wgt>
<wgt id='1519'> +7.4463377e+04 </wgt>
<wgt id='1520'> +7.3459412e+04 </wgt>
<wgt id='1521'> +7.3950489e+04 </wgt>
<wgt id='1522'> +7.4721673e+04 </wgt>
<wgt id='1523'> +7.4646605e+04 </wgt>
<wgt id='1524'> +7.4964020e+04 </wgt>
<wgt id='1525'> +7.5036593e+04 </wgt>
<wgt id='1526'> +7.4401621e+04 </wgt>
<wgt id='1527'> +7.4889128e+04 </wgt>
<wgt id='1528'> +7.4518876e+04 </wgt>
<wgt id='1529'> +7.4849984e+04 </wgt>
<wgt id='1530'> +7.4038372e+04 </wgt>
<wgt id='1531'> +7.4138480e+04 </wgt>
<wgt id='1532'> +7.3984309e+04 </wgt>
<wgt id='1533'> +7.4281327e+04 </wgt>
<wgt id='1534'> +7.4253528e+04 </wgt>
<wgt id='1535'> +7.3971649e+04 </wgt>
<wgt id='1536'> +7.5436299e+04 </wgt>
<wgt id='1537'> +7.3902180e+04 </wgt>
<wgt id='1538'> +7.6096961e+04 </wgt>
<wgt id='1539'> +7.5001477e+04 </wgt>
<wgt id='1540'> +7.4493841e+04 </wgt>
<wgt id='1541'> +7.4829251e+04 </wgt>
<wgt id='1542'> +7.5311158e+04 </wgt>
<wgt id='1543'> +7.4798242e+04 </wgt>
<wgt id='1544'> +7.5472135e+04 </wgt>
<wgt id='1545'> +7.4443705e+04 </wgt>
<wgt id='1546'> +7.4556278e+04 </wgt>
<wgt id='1547'> +7.5003824e+04 </wgt>
<wgt id='1548'> +7.4265396e+04 </wgt>
<wgt id='1549'> +7.4665007e+04 </wgt>
<wgt id='1550'> +7.4232934e+04 </wgt>
<wgt id='1551'> +7.5463305e+04 </wgt>
<wgt id='1552'> +7.4386751e+04 </wgt>
<wgt id='1553'> +7.5370596e+04 </wgt>
<wgt id='1554'> +7.2599837e+04 </wgt>
<wgt id='1555'> +7.5238606e+04 </wgt>
<wgt id='1556'> +7.5225922e+04 </wgt>
<wgt id='1557'> +7.4118881e+04 </wgt>
<wgt id='1558'> +7.5098069e+04 </wgt>
<wgt id='1559'> +7.5440728e+04 </wgt>
<wgt id='1560'> +7.5276464e+04 </wgt>
<wgt id='1561'> +7.4894943e+04 </wgt>
<wgt id='1562'> +7.4540625e+04 </wgt>
<wgt id='1563'> +7.5643432e+04 </wgt>
<wgt id='1564'> +7.3970776e+04 </wgt>
<wgt id='1565'> +7.3622622e+04 </wgt>
<wgt id='1566'> +7.4560596e+04 </wgt>
<wgt id='1567'> +7.5941948e+04 </wgt>
<wgt id='1568'> +7.4670514e+04 </wgt>
<wgt id='1569'> +7.5556364e+04 </wgt>
<wgt id='1570'> +7.5356119e+04 </wgt>
<wgt id='1571'> +7.5536746e+04 </wgt>
<wgt id='1572'> +7.4094661e+04 </wgt>
<wgt id='1573'> +7.5290237e+04 </wgt>
<wgt id='1574'> +7.3020759e+04 </wgt>
<wgt id='1575'> +7.4541594e+04 </wgt>
<wgt id='1576'> +7.5296224e+04 </wgt>
<wgt id='1577'> +7.4022772e+04 </wgt>
<wgt id='1578'> +7.4250819e+04 </wgt>
<wgt id='1579'> +7.4900897e+04 </wgt>
<wgt id='1580'> +7.4920577e+04 </wgt>
<wgt id='1581'> +7.4936296e+04 </wgt>
<wgt id='1582'> +7.5453160e+04 </wgt>
<wgt id='1583'> +7.2548313e+04 </wgt>
<wgt id='1584'> +7.3213450e+04 </wgt>
<wgt id='1585'> +7.2782398e+04 </wgt>
<wgt id='1586'> +6.9702649e+04 </wgt>
<wgt id='1587'> +7.2915650e+04 </wgt>
<wgt id='1588'> +7.3776619e+04 </wgt>
<wgt id='1589'> +7.3980821e+04 </wgt>
<wgt id='1590'> +7.4629758e+04 </wgt>
<wgt id='1591'> +7.5140321e+04 </wgt>
<wgt id='1592'> +7.5750832e+04 </wgt>
<wgt id='1593'> +7.3103403e+04 </wgt>
<wgt id='1594'> +7.3214477e+04 </wgt>
<wgt id='1595'> +7.2611028e+04 </wgt>
<wgt id='1596'> +7.2252117e+04 </wgt>
<wgt id='1597'> +7.4152113e+04 </wgt>
<wgt id='1598'> +7.2326505e+04 </wgt>
<wgt id='1599'> +7.3663284e+04 </wgt>
<wgt id='1600'> +7.1264759e+04 </wgt>
<wgt id='1601'> +7.4758461e+04 </wgt>
<wgt id='1602'> +7.2452775e+04 </wgt>
<wgt id='1603'> +7.3790916e+04 </wgt>
<wgt id='1604'> +7.3360404e+04 </wgt>
<wgt id='1605'> +7.3170804e+04 </wgt>
<wgt id='1606'> +7.2676173e+04 </wgt>
<wgt id='1607'> +7.2779867e+04 </wgt>
<wgt id='1608'> +7.2076692e+04 </wgt>
<wgt id='1609'> +7.3316357e+04 </wgt>
<wgt id='1610'> +7.2356672e+04 </wgt>
<wgt id='1611'> +7.3472658e+04 </wgt>
<wgt id='1612'> +7.4180803e+04 </wgt>
<wgt id='1613'> +7.0764489e+04 </wgt>
<wgt id='1614'> +7.2839678e+04 </wgt>
<wgt id='1615'> +7.3511700e+04 </wgt>
<wgt id='1616'> +7.2162020e+04 </wgt>
<wgt id='1617'> +7.3655870e+04 </wgt>
<wgt id='1618'> +7.3364491e+04 </wgt>
<wgt id='1619'> +7.2530265e+04 </wgt>
<wgt id='1620'> +7.2788309e+04 </wgt>
<wgt id='1621'> +7.3176181e+04 </wgt>
<wgt id='1622'> +7.2869495e+04 </wgt>
<wgt id='1623'> +7.2697168e+04 </wgt>
<wgt id='1624'> +7.3242972e+04 </wgt>
<wgt id='1625'> +7.1967074e+04 </wgt>
<wgt id='1626'> +7.1967646e+04 </wgt>
<wgt id='1627'> +7.3963265e+04 </wgt>
<wgt id='1628'> +7.3946997e+04 </wgt>
<wgt id='1629'> +7.2569948e+04 </wgt>
<wgt id='1630'> +7.3887308e+04 </wgt>
<wgt id='1631'> +7.1821622e+04 </wgt>
<wgt id='1632'> +7.2103588e+04 </wgt>
<wgt id='1633'> +7.3698564e+04 </wgt>
<wgt id='1634'> +7.4192754e+04 </wgt>
<wgt id='1635'> +7.1949365e+04 </wgt>
<wgt id='1636'> +7.2547732e+04 </wgt>
<wgt id='1637'> +7.3732818e+04 </wgt>
<wgt id='1638'> +7.2450734e+04 </wgt>
<wgt id='1639'> +7.3314419e+04 </wgt>
<wgt id='1640'> +7.4754269e+04 </wgt>
<wgt id='1641'> +7.1651813e+04 </wgt>
<wgt id='1642'> +7.2928863e+04 </wgt>
<wgt id='1643'> +7.2808325e+04 </wgt>
<wgt id='1644'> +7.3436469e+04 </wgt>
<wgt id='1645'> +7.1956481e+04 </wgt>
<wgt id='1646'> +7.3054545e+04 </wgt>
<wgt id='1647'> +7.3300528e+04 </wgt>
<wgt id='1648'> +7.3208840e+04 </wgt>
<wgt id='1649'> +7.3144566e+04 </wgt>
<wgt id='1650'> +7.3455285e+04 </wgt>
<wgt id='1651'> +7.2646229e+04 </wgt>
<wgt id='1652'> +7.2686377e+04 </wgt>
<wgt id='1653'> +7.2887489e+04 </wgt>
<wgt id='1654'> +7.3330762e+04 </wgt>
<wgt id='1655'> +7.3580073e+04 </wgt>
<wgt id='1656'> +7.4356557e+04 </wgt>
<wgt id='1657'> +7.4173119e+04 </wgt>
<wgt id='1658'> +7.4245486e+04 </wgt>
<wgt id='1659'> +7.4145279e+04 </wgt>
<wgt id='1660'> +7.4638637e+04 </wgt>
<wgt id='1661'> +7.5037806e+04 </wgt>
<wgt id='1662'> +7.3350277e+04 </wgt>
<wgt id='1663'> +7.3822040e+04 </wgt>
<wgt id='1664'> +7.3871077e+04 </wgt>
<wgt id='1665'> +7.3535439e+04 </wgt>
<wgt id='1666'> +7.4359150e+04 </wgt>
<wgt id='1667'> +7.3287040e+04 </wgt>
<wgt id='1668'> +7.5123381e+04 </wgt>
<wgt id='1669'> +7.4816973e+04 </wgt>
<wgt id='1670'> +7.3423124e+04 </wgt>
<wgt id='1671'> +7.4400521e+04 </wgt>
<wgt id='1672'> +7.4401026e+04 </wgt>
<wgt id='1673'> +7.4968121e+04 </wgt>
<wgt id='1674'> +7.3950461e+04 </wgt>
<wgt id='1675'> +7.4985493e+04 </wgt>
<wgt id='1676'> +7.3665128e+04 </wgt>
<wgt id='1677'> +7.3322460e+04 </wgt>
<wgt id='1678'> +7.5247915e+04 </wgt>
<wgt id='1679'> +7.4279489e+04 </wgt>
<wgt id='1680'> +7.5032408e+04 </wgt>
<wgt id='1681'> +7.3890462e+04 </wgt>
<wgt id='1682'> +7.4276173e+04 </wgt>
<wgt id='1683'> +7.4856450e+04 </wgt>
<wgt id='1684'> +7.3871747e+04 </wgt>
<wgt id='1685'> +7.4993520e+04 </wgt>
<wgt id='1686'> +7.3472055e+04 </wgt>
<wgt id='1687'> +7.5027827e+04 </wgt>
<wgt id='1688'> +7.3240320e+04 </wgt>
<wgt id='1689'> +7.4453088e+04 </wgt>
<wgt id='1690'> +7.4494320e+04 </wgt>
<wgt id='1691'> +7.4233664e+04 </wgt>
<wgt id='1692'> +7.4071802e+04 </wgt>
<wgt id='1693'> +7.5287035e+04 </wgt>
<wgt id='1694'> +7.3795467e+04 </wgt>
<wgt id='1695'> +7.4364020e+04 </wgt>
<wgt id='1696'> +7.4001629e+04 </wgt>
<wgt id='1697'> +7.4962696e+04 </wgt>
<wgt id='1698'> +7.3919698e+04 </wgt>
<wgt id='1699'> +7.2968964e+04 </wgt>
<wgt id='1700'> +7.6060984e+04 </wgt>
<wgt id='1701'> +7.4118272e+04 </wgt>
<wgt id='1702'> +7.4698475e+04 </wgt>
<wgt id='1703'> +7.4529018e+04 </wgt>
<wgt id='1704'> +7.4522450e+04 </wgt>
<wgt id='1705'> +7.3572300e+04 </wgt>
<wgt id='1706'> +7.4835224e+04 </wgt>
<wgt id='1707'> +7.3100609e+04 </wgt>
<wgt id='1708'> +7.5250171e+04 </wgt>
<wgt id='1709'> +7.3888622e+04 </wgt>
<wgt id='1710'> +7.4965486e+04 </wgt>
<wgt id='1711'> +7.3332438e+04 </wgt>
<wgt id='1712'> +7.4875431e+04 </wgt>
<wgt id='1713'> +7.4213373e+04 </wgt>
<wgt id='1714'> +7.4307640e+04 </wgt>
<wgt id='1715'> +7.2103338e+04 </wgt>
<wgt id='1716'> +7.4246532e+04 </wgt>
<wgt id='1717'> +7.0551891e+04 </wgt>
<wgt id='1718'> +7.0582358e+04 </wgt>
<wgt id='1719'> +7.0511414e+04 </wgt>
<wgt id='1720'> +7.0417887e+04 </wgt>
<wgt id='1721'> +7.0674359e+04 </wgt>
<wgt id='1722'> +7.0442929e+04 </wgt>
<wgt id='1723'> +7.0730473e+04 </wgt>
<wgt id='1724'> +7.0799138e+04 </wgt>
<wgt id='1725'> +7.0351087e+04 </wgt>
<wgt id='1726'> +7.0441900e+04 </wgt>
<wgt id='1727'> +7.0665085e+04 </wgt>
<wgt id='1728'> +6.9846970e+04 </wgt>
<wgt id='1729'> +7.1237092e+04 </wgt>
<wgt id='1730'> +7.0789304e+04 </wgt>
<wgt id='1731'> +7.0383049e+04 </wgt>
<wgt id='1732'> +7.0885060e+04 </wgt>
<wgt id='1733'> +7.0885060e+04 </wgt>
<wgt id='1734'> +7.0484420e+04 </wgt>
<wgt id='1735'> +7.0593897e+04 </wgt>
<wgt id='1736'> +7.0596315e+04 </wgt>
<wgt id='1737'> +7.0493795e+04 </wgt>
<wgt id='1738'> +7.0877422e+04 </wgt>
<wgt id='1739'> +6.9975178e+04 </wgt>
<wgt id='1740'> +7.0453582e+04 </wgt>
<wgt id='1741'> +7.0786586e+04 </wgt>
<wgt id='1742'> +7.0746665e+04 </wgt>
<wgt id='1743'> +7.0328400e+04 </wgt>
<wgt id='1744'> +7.0398733e+04 </wgt>
<wgt id='1745'> +7.0970494e+04 </wgt>
<wgt id='1746'> +7.0262512e+04 </wgt>
<wgt id='1747'> +7.0696088e+04 </wgt>
<wgt id='1748'> +7.0659118e+04 </wgt>
<wgt id='1749'> +7.0140889e+04 </wgt>
<wgt id='1750'> +7.0528147e+04 </wgt>
<wgt id='1751'> +7.0576737e+04 </wgt>
<wgt id='1752'> +7.0369196e+04 </wgt>
<wgt id='1753'> +7.0786934e+04 </wgt>
<wgt id='1754'> +7.0652524e+04 </wgt>
<wgt id='1755'> +7.0490340e+04 </wgt>
<wgt id='1756'> +7.0274143e+04 </wgt>
<wgt id='1757'> +7.1261060e+04 </wgt>
<wgt id='1758'> +7.0915918e+04 </wgt>
<wgt id='1759'> +7.0105855e+04 </wgt>
<wgt id='1760'> +7.1082652e+04 </wgt>
<wgt id='1761'> +7.0113828e+04 </wgt>
<wgt id='1762'> +7.0533252e+04 </wgt>
<wgt id='1763'> +7.0328702e+04 </wgt>
<wgt id='1764'> +7.0407826e+04 </wgt>
<wgt id='1765'> +7.1216579e+04 </wgt>
<wgt id='1766'> +7.0478551e+04 </wgt>
<wgt id='1767'> +7.0694860e+04 </wgt>
<wgt id='1768'> +7.0394805e+04 </wgt>
<wgt id='1769'> +7.0701537e+04 </wgt>
<wgt id='1770'> +7.0369931e+04 </wgt>
<wgt id='1771'> +7.0677265e+04 </wgt>
<wgt id='1772'> +7.0851376e+04 </wgt>
<wgt id='1773'> +7.0300460e+04 </wgt>
<wgt id='1774'> +7.0231028e+04 </wgt>
<wgt id='1775'> +7.0754961e+04 </wgt>
<wgt id='1776'> +7.0602043e+04 </wgt>
<wgt id='1777'> +7.0544733e+04 </wgt>
<wgt id='1778'> +7.0264261e+04 </wgt>
<wgt id='1779'> +7.0583805e+04 </wgt>
<wgt id='1780'> +7.1172910e+04 </wgt>
<wgt id='1781'> +7.0648301e+04 </wgt>
<wgt id='1782'> +7.0551891e+04 </wgt>
<wgt id='1783'> +7.0530992e+04 </wgt>
<wgt id='1784'> +7.2464104e+04 </wgt>
<wgt id='1785'> +7.2757170e+04 </wgt>
<wgt id='1786'> +7.1366552e+04 </wgt>
<wgt id='1787'> +7.2559397e+04 </wgt>
<wgt id='1788'> +7.2291755e+04 </wgt>
<wgt id='1789'> +7.2554426e+04 </wgt>
<wgt id='1790'> +7.2769722e+04 </wgt>
<wgt id='1791'> +7.2717768e+04 </wgt>
<wgt id='1792'> +7.1952996e+04 </wgt>
<wgt id='1793'> +7.2871034e+04 </wgt>
<wgt id='1794'> +7.2526416e+04 </wgt>
<wgt id='1795'> +7.1943342e+04 </wgt>
<wgt id='1796'> +7.2572281e+04 </wgt>
<wgt id='1797'> +7.2402493e+04 </wgt>
<wgt id='1798'> +7.2742277e+04 </wgt>
<wgt id='1799'> +7.3008128e+04 </wgt>
<wgt id='1800'> +7.2665378e+04 </wgt>
<wgt id='1801'> +7.3610313e+04 </wgt>
<wgt id='1802'> +7.3374175e+04 </wgt>
<wgt id='1803'> +7.2587117e+04 </wgt>
<wgt id='1804'> +7.2515233e+04 </wgt>
<wgt id='1805'> +7.2560577e+04 </wgt>
<wgt id='1806'> +7.2427021e+04 </wgt>
<wgt id='1807'> +7.2506167e+04 </wgt>
<wgt id='1808'> +7.2509249e+04 </wgt>
<wgt id='1809'> +7.2491285e+04 </wgt>
<wgt id='1810'> +7.2434124e+04 </wgt>
<wgt id='1811'> +7.2411388e+04 </wgt>
<wgt id='1812'> +7.2499312e+04 </wgt>
<wgt id='1813'> +7.2368891e+04 </wgt>
<wgt id='1814'> +7.2598712e+04 </wgt>
<wgt id='1815'> +7.2387814e+04 </wgt>
<wgt id='1816'> +7.2516876e+04 </wgt>
<wgt id='1817'> +7.2400632e+04 </wgt>
<wgt id='1818'> +7.2459114e+04 </wgt>
<wgt id='1819'> +7.2323513e+04 </wgt>
<wgt id='1820'> +7.2487689e+04 </wgt>
<wgt id='1821'> +7.2467457e+04 </wgt>
<wgt id='1822'> +7.2310702e+04 </wgt>
<wgt id='1823'> +7.2473454e+04 </wgt>
<wgt id='1824'> +7.2458945e+04 </wgt>
<wgt id='1825'> +7.1576581e+04 </wgt>
<wgt id='1826'> +7.3616054e+04 </wgt>
<wgt id='1827'> +8.1437009e+04 </wgt>
<wgt id='1828'> +8.1615087e+04 </wgt>
<wgt id='1829'> +8.1286314e+04 </wgt>
<wgt id='1830'> +8.1426720e+04 </wgt>
<wgt id='1831'> +8.1473603e+04 </wgt>
<wgt id='1832'> +8.1537902e+04 </wgt>
<wgt id='1833'> +8.1362145e+04 </wgt>
<wgt id='1834'> +8.1113503e+04 </wgt>
<wgt id='1835'> +8.1771484e+04 </wgt>
<wgt id='1836'> +8.1702137e+04 </wgt>
<wgt id='1837'> +8.1190237e+04 </wgt>
<wgt id='1838'> +8.1455148e+04 </wgt>
<wgt id='1839'> +8.1443923e+04 </wgt>
<wgt id='1840'> +8.1202894e+04 </wgt>
<wgt id='1841'> +8.1702313e+04 </wgt>
<wgt id='1842'> +8.1435230e+04 </wgt>
<wgt id='1843'> +8.1616015e+04 </wgt>
<wgt id='1844'> +8.1415387e+04 </wgt>
<wgt id='1845'> +8.1466416e+04 </wgt>
<wgt id='1846'> +8.1567312e+04 </wgt>
<wgt id='1847'> +8.1325058e+04 </wgt>
<wgt id='1848'> +8.0831583e+04 </wgt>
<wgt id='1849'> +8.1973530e+04 </wgt>
<wgt id='1850'> +8.1508074e+04 </wgt>
<wgt id='1851'> +8.1409603e+04 </wgt>
<wgt id='1852'> +8.1191689e+04 </wgt>
<wgt id='1853'> +8.1547478e+04 </wgt>
<wgt id='1854'> +8.1277316e+04 </wgt>
<wgt id='1855'> +8.1555116e+04 </wgt>
<wgt id='1856'> +7.0963154e+04 </wgt>
<wgt id='1857'> +7.0945264e+04 </wgt>
<wgt id='1858'> +7.0943155e+04 </wgt>
<wgt id='1859'> +7.0990746e+04 </wgt>
<wgt id='1860'> +7.0965036e+04 </wgt>
<wgt id='1861'> +7.1055055e+04 </wgt>
<wgt id='1862'> +7.0674040e+04 </wgt>
<wgt id='1863'> +7.1003919e+04 </wgt>
<wgt id='1864'> +7.0845278e+04 </wgt>
<wgt id='1865'> +7.0815432e+04 </wgt>
<wgt id='1866'> +7.1164808e+04 </wgt>
<wgt id='1867'> +7.0920762e+04 </wgt>
<wgt id='1868'> +7.0915499e+04 </wgt>
<wgt id='1869'> +7.1020839e+04 </wgt>
<wgt id='1870'> +7.0860425e+04 </wgt>
<wgt id='1871'> +7.1052372e+04 </wgt>
<wgt id='1872'> +7.0960822e+04 </wgt>
<wgt id='1873'> +7.0914266e+04 </wgt>
<wgt id='1874'> +7.1050093e+04 </wgt>
<wgt id='1875'> +7.0984758e+04 </wgt>
<wgt id='1876'> +7.0711774e+04 </wgt>
<wgt id='1877'> +7.0860607e+04 </wgt>
<wgt id='1878'> +7.0828234e+04 </wgt>
<wgt id='1879'> +7.1067776e+04 </wgt>
<wgt id='1880'> +7.1096110e+04 </wgt>
<wgt id='1881'> +7.1191467e+04 </wgt>
<wgt id='1882'> +7.0899827e+04 </wgt>
<wgt id='1883'> +7.1035808e+04 </wgt>
<wgt id='1884'> +7.0783387e+04 </wgt>
<wgt id='1885'> +7.0562192e+04 </wgt>
<wgt id='1886'> +7.4184537e+04 </wgt>
<wgt id='1887'> +8.1045682e+04 </wgt>
<wgt id='1888'> +6.3969256e+04 </wgt>
<wgt id='1889'> +7.7372251e+04 </wgt>
</rwgt>
</event>
<event npLO=" -1 " npNLO=" 0 ">
 5      0 +7.4519530e+04 3.00000000e+01 7.55820760e-03 1.18211250e-01
       -3 -1    0    0    0  501 +0.0000000000e+00 +0.0000000000e+00 +5.0827278215e+02 5.0827278215e+02 0.0000000000e+00 0.0000e+00 1.0000e+00
        4 -1    0    0  501    0 +0.0000000000e+00 +0.0000000000e+00 -3.0699213244e+00 3.0699213244e+00 0.0000000000e+00 0.0000e+00 -1.0000e+00
       24  2    1    2    0    0 +0.0000000000e+00 +0.0000000000e+00 +5.0520286083e+02 5.1134270347e+02 7.9002720271e+01 0.0000e+00 0.0000e+00
      -13  1    3    3    0    0 +3.4835713144e+00 +8.3723587009e+00 +5.0144459489e+02 5.0152658295e+02 0.0000000000e+00 0.0000e+00 1.0000e+00
       14  1    3    3    0    0 -3.4835713144e+00 -8.3723587009e+00 +3.7582659337e+00 9.8161205243e+00 0.0000000000e+00 0.0000e+00 -1.0000e+00
#aMCatNLO 1  0  0  1  2 0.46465062E+02 0.00000000E+00 -9  5  0 0.00000000E+00 0.00000000E+00 0.00000000E+00 0.00000000E+00 0.00000000E+00
<rwgt>
<wgt id='1001'> +7.4519530e+04 </wgt>
<wgt id='1002'> +7.4108198e+04 </wgt>
<wgt id='1003'> +7.5032380e+04 </wgt>
<wgt id='1004'> +8.3028808e+04 </wgt>
<wgt id='1005'> +8.2844877e+04 </wgt>
<wgt id='1006'> +8.3258134e+04 </wgt>
<wgt id='1007'> +6.4657171e+04 </wgt>
<wgt id='1008'> +6.4057842e+04 </wgt>
<wgt id='1009'> +6.5404419e+04 </wgt>
<wgt id='1010'> +7.4519530e+04 </wgt>
<wgt id='1011'> +7.5164165e+04 </wgt>
<wgt id='1012'> +7.4126096e+04 </wgt>
<wgt id='1013'> +7.3824806e+04 </wgt>
<wgt id='1014'> +7.3888121e+04 </wgt>
<wgt id='1015'> +7.5615568e+04 </wgt>
<wgt id='1016'> +7.3985211e+04 </wgt>
<wgt id='1017'> +7.4556130e+04 </wgt>
<wgt id='1018'> +7.5221908e+04 </wgt>
<wgt id='1019'> +7.3213040e+04 </wgt>
<wgt id='1020'> +7.4009539e+04 </wgt>
<wgt id='1021'> +7.4128284e+04 </wgt>
<wgt id='1022'> +7.4894024e+04 </wgt>
<wgt id='1023'> +7.3612685e+04 </wgt>
<wgt id='1024'> +7.5401457e+04 </wgt>
<wgt id='1025'> +7.2493867e+04 </wgt>
<wgt id='1026'> +7.3738354e+04 </wgt>
<wgt id='1027'> +7.4221753e+04 </wgt>
<wgt id='1028'> +7.5305880e+04 </wgt>
<wgt id='1029'> +7.3491400e+04 </wgt>
<wgt id='1030'> +7.5081576e+04 </wgt>
<wgt id='1031'> +7.5711479e+04 </wgt>
<wgt id='1032'> +7.5210418e+04 </wgt>
<wgt id='1033'> +7.4946806e+04 </wgt>
<wgt id='1034'> +7.5363665e+04 </wgt>
<wgt id='1035'> +7.4543038e+04 </wgt>
<wgt id='1036'> +7.5510411e+04 </wgt>
<wgt id='1037'> +7.3001558e+04 </wgt>
<wgt id='1038'> +7.5546281e+04 </wgt>
<wgt id='1039'> +7.2243092e+04 </wgt>
<wgt id='1040'> +7.4597081e+04 </wgt>
<wgt id='1041'> +7.3222993e+04 </wgt>
<wgt id='1042'> +7.5435571e+04 </wgt>
<wgt id='1043'> +7.4131833e+04 </wgt>
<wgt id='1044'> +7.5026529e+04 </wgt>
<wgt id='1045'> +7.4659046e+04 </wgt>
<wgt id='1046'> +7.4639206e+04 </wgt>
<wgt id='1047'> +7.3966222e+04 </wgt>
<wgt id='1048'> +7.4861819e+04 </wgt>
<wgt id='1049'> +7.5427157e+04 </wgt>
<wgt id='1050'> +7.4741846e+04 </wgt>
<wgt id='1051'> +7.4452002e+04 </wgt>
<wgt id='1052'> +7.3892149e+04 </wgt>
<wgt id='1053'> +7.4650374e+04 </wgt>
<wgt id='1054'> +7.5242393e+04 </wgt>
<wgt id='1055'> +7.3284828e+04 </wgt>
<wgt id='1056'> +7.4596340e+04 </wgt>
<wgt id='1057'> +7.4842310e+04 </wgt>
<wgt id='1058'> +7.4623559e+04 </wgt>
<wgt id='1059'> +7.5128742e+04 </wgt>
<wgt id='1060'> +7.4302503e+04 </wgt>
<wgt id='1061'> +7.3617306e+04 </wgt>
<wgt id='1062'> +7.5327756e+04 </wgt>
<wgt id='1063'> +7.4136586e+04 </wgt>
<wgt id='1064'> +7.4307436e+04 </wgt>
<wgt id='1065'> +7.4342200e+04 </wgt>
<wgt id='1066'> +7.5009337e+04 </wgt>
<wgt id='1067'> +7.4674974e+04 </wgt>
<wgt id='1068'> +7.4602088e+04 </wgt>
<wgt id='1069'> +7.5532985e+04 </wgt>
<wgt id='1070'> +7.4227040e+04 </wgt>
<wgt id='1071'> +7.3519038e+04 </wgt>
<wgt id='1072'> +7.4625113e+04 </wgt>
<wgt id='1073'> +7.3841002e+04 </wgt>
<wgt id='1074'> +7.4741025e+04 </wgt>
<wgt id='1075'> +7.4107247e+04 </wgt>
<wgt id='1076'> +7.4861737e+04 </wgt>
<wgt id='1077'> +7.3810449e+04 </wgt>
<wgt id='1078'> +7.5294345e+04 </wgt>
<wgt id='1079'> +7.5152398e+04 </wgt>
<wgt id='1080'> +7.5042249e+04 </wgt>
<wgt id='1081'> +7.5150179e+04 </wgt>
<wgt id='1082'> +7.4936809e+04 </wgt>
<wgt id='1083'> +7.5097624e+04 </wgt>
<wgt id='1084'> +7.4288386e+04 </wgt>
<wgt id='1085'> +7.4877509e+04 </wgt>
<wgt id='1086'> +7.4721148e+04 </wgt>
<wgt id='1087'> +7.4889127e+04 </wgt>
<wgt id='1088'> +7.3847394e+04 </wgt>
<wgt id='1089'> +7.4661097e+04 </wgt>
<wgt id='1090'> +7.4115340e+04 </wgt>
<wgt id='1091'> +7.3847672e+04 </wgt>
<wgt id='1092'> +7.3850501e+04 </wgt>
<wgt id='1093'> +7.4903215e+04 </wgt>
<wgt id='1094'> +7.4362740e+04 </wgt>
<wgt id='1095'> +7.4163465e+04 </wgt>
<wgt id='1096'> +7.4473247e+04 </wgt>
<wgt id='1097'> +7.4664467e+04 </wgt>
<wgt id='1098'> +7.4651162e+04 </wgt>
<wgt id='1099'> +7.4454561e+04 </wgt>
<wgt id='1100'> +7.4519061e+04 </wgt>
<wgt id='1101'> +7.4361186e+04 </wgt>
<wgt id='1102'> +7.4247747e+04 </wgt>
<wgt id='1103'> +7.4548846e+04 </wgt>
<wgt id='1104'> +7.4572888e+04 </wgt>
<wgt id='1105'> +7.4294989e+04 </wgt>
<wgt id='1106'> +7.4600202e+04 </wgt>
<wgt id='1107'> +7.4248414e+04 </wgt>
<wgt id='1108'> +7.4521523e+04 </wgt>
<wgt id='1109'> +7.4467770e+04 </wgt>
<wgt id='1110'> +7.4519529e+04 </wgt>
<wgt id='1111'> +7.3153911e+04 </wgt>
<wgt id='1112'> +7.6275353e+04 </wgt>
<wgt id='1113'> +7.4519529e+04 </wgt>
<wgt id='1114'> +5.8459331e+04 </wgt>
<wgt id='1115'> +6.9487492e+04 </wgt>
<wgt id='1116'> +6.2701827e+04 </wgt>
<wgt id='1117'> +6.4592494e+04 </wgt>
<wgt id='1118'> +7.0532808e+04 </wgt>
<wgt id='1119'> +7.2622431e+04 </wgt>
<wgt id='1120'> +7.9187305e+04 </wgt>
<wgt id='1121'> +7.8638549e+04 </wgt>
<wgt id='1122'> +7.9279132e+04 </wgt>
<wgt id='1123'> +7.9068333e+04 </wgt>
<wgt id='1124'> +7.3979946e+04 </wgt>
<wgt id='1125'> +7.8040297e+04 </wgt>
<wgt id='1126'> +7.1088374e+04 </wgt>
<wgt id='1127'> +7.5062374e+04 </wgt>
<wgt id='1128'> +7.3552313e+04 </wgt>
<wgt id='1129'> +7.3544948e+04 </wgt>
<wgt id='1130'> +6.5540291e+04 </wgt>
<wgt id='1131'> +7.1497892e+04 </wgt>
<wgt id='1132'> +7.7100895e+04 </wgt>
<wgt id='1133'> +8.9248660e+04 </wgt>
<wgt id='1134'> +7.0750500e+04 </wgt>
<wgt id='1135'> +7.0965125e+04 </wgt>
<wgt id='1136'> +7.8239479e+04 </wgt>
<wgt id='1137'> +7.0300282e+04 </wgt>
<wgt id='1138'> +7.6003231e+04 </wgt>
<wgt id='1139'> +7.1294005e+04 </wgt>
<wgt id='1140'> +7.4005335e+04 </wgt>
<wgt id='1141'> +7.0225652e+04 </wgt>
<wgt id='1142'> +8.0409212e+04 </wgt>
<wgt id='1143'> +6.6015030e+04 </wgt>
<wgt id='1144'> +7.7386781e+04 </wgt>
<wgt id='1145'> +7.6604153e+04 </wgt>
<wgt id='1146'> +7.1667263e+04 </wgt>
<wgt id='1147'> +7.5023492e+04 </wgt>
<wgt id='1148'> +7.1282047e+04 </wgt>
<wgt id='1149'> +7.1013172e+04 </wgt>
<wgt id='1150'> +7.3463935e+04 </wgt>
<wgt id='1151'> +6.9684120e+04 </wgt>
<wgt id='1152'> +7.7215532e+04 </wgt>
<wgt id='1153'> +7.2675587e+04 </wgt>
<wgt id='1154'> +7.0046036e+04 </wgt>
<wgt id='1155'> +7.6131925e+04 </wgt>
<wgt id='1156'> +6.5888656e+04 </wgt>
<wgt id='1157'> +7.2026527e+04 </wgt>
<wgt id='1158'> +7.7720730e+04 </wgt>
<wgt id='1159'> +8.1154690e+04 </wgt>
<wgt id='1160'> +6.6232304e+04 </wgt>
<wgt id='1161'> +6.8152438e+04 </wgt>
<wgt id='1162'> +7.6144751e+04 </wgt>
<wgt id='1163'> +7.5720991e+04 </wgt>
<wgt id='1164'> +7.9725422e+04 </wgt>
<wgt id='1165'> +8.5633725e+04 </wgt>
<wgt id='1166'> +6.7640293e+04 </wgt>
<wgt id='1167'> +7.7727634e+04 </wgt>
<wgt id='1168'> +7.5051112e+04 </wgt>
<wgt id='1169'> +7.2165593e+04 </wgt>
<wgt id='1170'> +8.2455619e+04 </wgt>
<wgt id='1171'> +6.9819841e+04 </wgt>
<wgt id='1172'> +7.2563607e+04 </wgt>
<wgt id='1173'> +7.9122328e+04 </wgt>
<wgt id='1174'> +7.1803328e+04 </wgt>
<wgt id='1175'> +6.8356101e+04 </wgt>
<wgt id='1176'> +6.7753598e+04 </wgt>
<wgt id='1177'> +6.9745590e+04 </wgt>
<wgt id='1178'> +7.3211275e+04 </wgt>
<wgt id='1179'> +8.3608575e+04 </wgt>
<wgt id='1180'> +7.5157401e+04 </wgt>
<wgt id='1181'> +8.5709302e+04 </wgt>
<wgt id='1182'> +7.9623118e+04 </wgt>
<wgt id='1183'> +8.0311857e+04 </wgt>
<wgt id='1184'> +7.3817070e+04 </wgt>
<wgt id='1185'> +7.4642597e+04 </wgt>
<wgt id='1186'> +9.0427997e+04 </wgt>
<wgt id='1187'> +7.2967983e+04 </wgt>
<wgt id='1188'> +8.3228066e+04 </wgt>
<wgt id='1189'> +6.5784232e+04 </wgt>
<wgt id='1190'> +7.1273834e+04 </wgt>
<wgt id='1191'> +7.3902625e+04 </wgt>
<wgt id='1192'> +7.5345366e+04 </wgt>
<wgt id='1193'> +6.3733823e+04 </wgt>
<wgt id='1194'> +7.4806671e+04 </wgt>
<wgt id='1195'> +7.3544948e+04 </wgt>
<wgt id='1196'> +8.2802635e+04 </wgt>
<wgt id='1197'> +7.0613007e+04 </wgt>
<wgt id='1198'> +7.1397388e+04 </wgt>
<wgt id='1199'> +6.6590803e+04 </wgt>
<wgt id='1200'> +6.9651376e+04 </wgt>
<wgt id='1201'> +7.8048732e+04 </wgt>
<wgt id='1202'> +1.0613082e+05 </wgt>
<wgt id='1203'> +7.6040990e+04 </wgt>
<wgt id='1204'> +7.9281611e+04 </wgt>
<wgt id='1205'> +9.1863719e+04 </wgt>
<wgt id='1206'> +7.5385719e+04 </wgt>
<wgt id='1207'> +7.5649087e+04 </wgt>
<wgt id='1208'> +7.2205130e+04 </wgt>
<wgt id='1209'> +7.5204763e+04 </wgt>
<wgt id='1210'> +7.5960009e+04 </wgt>
<wgt id='1211'> +6.8603145e+04 </wgt>
<wgt id='1212'> +7.3570742e+04 </wgt>
<wgt id='1213'> +7.5018197e+04 </wgt>
<wgt id='1214'> +7.4158403e+04 </wgt>
<wgt id='1215'> +6.5227590e+04 </wgt>
<wgt id='1216'> +6.6430960e+04 </wgt>
<wgt id='1217'> +6.8168027e+04 </wgt>
<wgt id='1218'> +7.0535426e+04 </wgt>
<wgt id='1219'> +7.3988271e+04 </wgt>
<wgt id='1220'> +7.4458481e+04 </wgt>
<wgt id='1221'> +7.8164175e+04 </wgt>
<wgt id='1222'> +7.9049191e+04 </wgt>
<wgt id='1223'> +7.0159909e+04 </wgt>
<wgt id='1224'> +6.9865053e+04 </wgt>
<wgt id='1225'> +7.0764033e+04 </wgt>
<wgt id='1226'> +7.0038257e+04 </wgt>
<wgt id='1227'> +6.9397881e+04 </wgt>
<wgt id='1228'> +6.9545682e+04 </wgt>
<wgt id='1229'> +7.0265155e+04 </wgt>
<wgt id='1230'> +7.0054337e+04 </wgt>
<wgt id='1231'> +7.0174812e+04 </wgt>
<wgt id='1232'> +7.0108931e+04 </wgt>
<wgt id='1233'> +7.0526140e+04 </wgt>
<wgt id='1234'> +7.0187683e+04 </wgt>
<wgt id='1235'> +6.9757246e+04 </wgt>
<wgt id='1236'> +6.9951016e+04 </wgt>
<wgt id='1237'> +7.0184866e+04 </wgt>
<wgt id='1238'> +7.0148723e+04 </wgt>
<wgt id='1239'> +7.0370086e+04 </wgt>
<wgt id='1240'> +7.0119129e+04 </wgt>
<wgt id='1241'> +6.9904784e+04 </wgt>
<wgt id='1242'> +6.9708168e+04 </wgt>
<wgt id='1243'> +6.9788371e+04 </wgt>
<wgt id='1244'> +7.0365757e+04 </wgt>
<wgt id='1245'> +7.0029226e+04 </wgt>
<wgt id='1246'> +7.0076664e+04 </wgt>
<wgt id='1247'> +7.0248179e+04 </wgt>
<wgt id='1248'> +7.0179677e+04 </wgt>
<wgt id='1249'> +7.0437022e+04 </wgt>
<wgt id='1250'> +6.9393696e+04 </wgt>
<wgt id='1251'> +7.0199707e+04 </wgt>
<wgt id='1252'> +6.9825169e+04 </wgt>
<wgt id='1253'> +7.0425261e+04 </wgt>
<wgt id='1254'> +6.9619400e+04 </wgt>
<wgt id='1255'> +7.0755404e+04 </wgt>
<wgt id='1256'> +7.0093783e+04 </wgt>
<wgt id='1257'> +7.0112022e+04 </wgt>
<wgt id='1258'> +7.0713437e+04 </wgt>
<wgt id='1259'> +7.1119680e+04 </wgt>
<wgt id='1260'> +7.0222114e+04 </wgt>
<wgt id='1261'> +7.0782270e+04 </wgt>
<wgt id='1262'> +7.0231517e+04 </wgt>
<wgt id='1263'> +7.0694127e+04 </wgt>
<wgt id='1264'> +7.0358257e+04 </wgt>
<wgt id='1265'> +7.0454620e+04 </wgt>
<wgt id='1266'> +7.0203340e+04 </wgt>
<wgt id='1267'> +7.0695959e+04 </wgt>
<wgt id='1268'> +7.0616554e+04 </wgt>
<wgt id='1269'> +7.0680673e+04 </wgt>
<wgt id='1270'> +6.9698207e+04 </wgt>
<wgt id='1271'> +6.9612448e+04 </wgt>
<wgt id='1272'> +7.0667885e+04 </wgt>
<wgt id='1273'> +6.9808337e+04 </wgt>
<wgt id='1274'> +6.9356087e+04 </wgt>
<wgt id='1275'> +7.0051194e+04 </wgt>
<wgt id='1276'> +7.0803474e+04 </wgt>
<wgt id='1277'> +6.9656033e+04 </wgt>
<wgt id='1278'> +7.0245747e+04 </wgt>
<wgt id='1279'> +7.1382926e+04 </wgt>
<wgt id='1280'> +7.0470289e+04 </wgt>
<wgt id='1281'> +7.1709571e+04 </wgt>
<wgt id='1282'> +6.9756433e+04 </wgt>
<wgt id='1283'> +6.9464817e+04 </wgt>
<wgt id='1284'> +7.0410773e+04 </wgt>
<wgt id='1285'> +7.1019694e+04 </wgt>
<wgt id='1286'> +7.0108375e+04 </wgt>
<wgt id='1287'> +6.9916690e+04 </wgt>
<wgt id='1288'> +7.0829013e+04 </wgt>
<wgt id='1289'> +6.9905980e+04 </wgt>
<wgt id='1290'> +6.9535673e+04 </wgt>
<wgt id='1291'> +6.9051546e+04 </wgt>
<wgt id='1292'> +7.0867006e+04 </wgt>
<wgt id='1293'> +7.0413793e+04 </wgt>
<wgt id='1294'> +7.0212236e+04 </wgt>
<wgt id='1295'> +7.0308859e+04 </wgt>
<wgt id='1296'> +7.0122451e+04 </wgt>
<wgt id='1297'> +7.0179939e+04 </wgt>
<wgt id='1298'> +7.0613714e+04 </wgt>
<wgt id='1299'> +7.0341385e+04 </wgt>
<wgt id='1300'> +7.0411295e+04 </wgt>
<wgt id='1301'> +6.9957784e+04 </wgt>
<wgt id='1302'> +7.0741956e+04 </wgt>
<wgt id='1303'> +7.0252274e+04 </wgt>
<wgt id='1304'> +6.9987740e+04 </wgt>
<wgt id='1305'> +7.0003713e+04 </wgt>
<wgt id='1306'> +7.0298877e+04 </wgt>
<wgt id='1307'> +7.0456235e+04 </wgt>
<wgt id='1308'> +6.9912819e+04 </wgt>
<wgt id='1309'> +7.0553008e+04 </wgt>
<wgt id='1310'> +6.9985716e+04 </wgt>
<wgt id='1311'> +7.0568542e+04 </wgt>
<wgt id='1312'> +6.8891919e+04 </wgt>
<wgt id='1313'> +7.0438651e+04 </wgt>
<wgt id='1314'> +7.0332066e+04 </wgt>
<wgt id='1315'> +7.0150402e+04 </wgt>
<wgt id='1316'> +7.0129289e+04 </wgt>
<wgt id='1317'> +7.0665293e+04 </wgt>
<wgt id='1318'> +7.0547713e+04 </wgt>
<wgt id='1319'> +7.0481822e+04 </wgt>
<wgt id='1320'> +6.9724159e+04 </wgt>
<wgt id='1321'> +6.9772258e+04 </wgt>
<wgt id='1322'> +7.0748886e+04 </wgt>
<wgt id='1323'> +6.9730292e+04 </wgt>
<wgt id='1324'> +6.8972660e+04 </wgt>
<wgt id='1325'> +7.1998204e+04 </wgt>
<wgt id='1326'> +6.8809584e+04 </wgt>
<wgt id='1327'> +6.9097093e+04 </wgt>
<wgt id='1328'> +8.0712877e+04 </wgt>
<wgt id='1329'> +8.3157115e+04 </wgt>
<wgt id='1330'> +8.2455595e+04 </wgt>
<wgt id='1331'> +7.8950368e+04 </wgt>
<wgt id='1332'> +6.8809678e+04 </wgt>
<wgt id='1333'> +7.4895935e+04 </wgt>
<wgt id='1334'> +8.9609061e+04 </wgt>
<wgt id='1335'> +7.3845884e+04 </wgt>
<wgt id='1336'> +7.6354022e+04 </wgt>
<wgt id='1337'> +7.7433804e+04 </wgt>
<wgt id='1338'> +8.9363525e+04 </wgt>
<wgt id='1339'> +8.7798696e+04 </wgt>
<wgt id='1340'> +7.8884557e+04 </wgt>
<wgt id='1341'> +7.6610092e+04 </wgt>
<wgt id='1342'> +7.7793862e+04 </wgt>
<wgt id='1343'> +8.0206315e+04 </wgt>
<wgt id='1344'> +8.0154941e+04 </wgt>
<wgt id='1345'> +8.8952194e+04 </wgt>
<wgt id='1346'> +7.0981952e+04 </wgt>
<wgt id='1347'> +7.9212521e+04 </wgt>
<wgt id='1348'> +8.7358932e+04 </wgt>
<wgt id='1349'> +7.4679446e+04 </wgt>
<wgt id='1350'> +7.7091702e+04 </wgt>
<wgt id='1351'> +8.1410589e+04 </wgt>
<wgt id='1352'> +8.1680689e+04 </wgt>
<wgt id='1353'> +7.2769549e+04 </wgt>
<wgt id='1354'> +8.6568636e+04 </wgt>
<wgt id='1355'> +7.6699101e+04 </wgt>
<wgt id='1356'> +8.1391982e+04 </wgt>
<wgt id='1357'> +7.8653938e+04 </wgt>
<wgt id='1358'> +8.2776066e+04 </wgt>
<wgt id='1359'> +7.5241558e+04 </wgt>
<wgt id='1360'> +8.4102170e+04 </wgt>
<wgt id='1361'> +7.2754565e+04 </wgt>
<wgt id='1362'> +9.0302301e+04 </wgt>
<wgt id='1363'> +8.1186596e+04 </wgt>
<wgt id='1364'> +8.3747681e+04 </wgt>
<wgt id='1365'> +8.0907334e+04 </wgt>
<wgt id='1366'> +7.7185780e+04 </wgt>
<wgt id='1367'> +7.8414707e+04 </wgt>
<wgt id='1368'> +8.4116823e+04 </wgt>
<wgt id='1369'> +8.2040006e+04 </wgt>
<wgt id='1370'> +8.5891078e+04 </wgt>
<wgt id='1371'> +7.4723976e+04 </wgt>
<wgt id='1372'> +7.6373390e+04 </wgt>
<wgt id='1373'> +8.3122544e+04 </wgt>
<wgt id='1374'> +7.7784044e+04 </wgt>
<wgt id='1375'> +8.5123192e+04 </wgt>
<wgt id='1376'> +9.0725079e+04 </wgt>
<wgt id='1377'> +8.1703124e+04 </wgt>
<wgt id='1378'> +7.9786925e+04 </wgt>
<wgt id='1379'> +8.5624841e+04 </wgt>
<wgt id='1380'> +7.9407721e+04 </wgt>
<wgt id='1381'> +8.6348912e+04 </wgt>
<wgt id='1382'> +7.8812682e+04 </wgt>
<wgt id='1383'> +8.5759532e+04 </wgt>
<wgt id='1384'> +8.4478298e+04 </wgt>
<wgt id='1385'> +7.8017331e+04 </wgt>
<wgt id='1386'> +8.0052565e+04 </wgt>
<wgt id='1387'> +8.4728557e+04 </wgt>
<wgt id='1388'> +8.1597614e+04 </wgt>
<wgt id='1389'> +7.6946063e+04 </wgt>
<wgt id='1390'> +7.9228299e+04 </wgt>
<wgt id='1391'> +8.6228159e+04 </wgt>
<wgt id='1392'> +8.2014637e+04 </wgt>
<wgt id='1393'> +7.4992799e+04 </wgt>
<wgt id='1394'> +8.0907334e+04 </wgt>
<wgt id='1395'> +7.8214039e+04 </wgt>
<wgt id='1396'> +8.4231225e+04 </wgt>
<wgt id='1397'> +7.8351335e+04 </wgt>
<wgt id='1398'> +8.0599586e+04 </wgt>
<wgt id='1399'> +8.6122317e+04 </wgt>
<wgt id='1400'> +8.3552864e+04 </wgt>
<wgt id='1401'> +8.2059610e+04 </wgt>
<wgt id='1402'> +7.6431294e+04 </wgt>
<wgt id='1403'> +8.2303896e+04 </wgt>
<wgt id='1404'> +8.3852658e+04 </wgt>
<wgt id='1405'> +8.0275484e+04 </wgt>
<wgt id='1406'> +7.7341206e+04 </wgt>
<wgt id='1407'> +8.5728852e+04 </wgt>
<wgt id='1408'> +7.6283009e+04 </wgt>
<wgt id='1409'> +8.4884834e+04 </wgt>
<wgt id='1410'> +8.2467511e+04 </wgt>
<wgt id='1411'> +8.4823641e+04 </wgt>
<wgt id='1412'> +7.7020982e+04 </wgt>
<wgt id='1413'> +7.6746047e+04 </wgt>
<wgt id='1414'> +8.1754318e+04 </wgt>
<wgt id='1415'> +8.2411696e+04 </wgt>
<wgt id='1416'> +8.5115301e+04 </wgt>
<wgt id='1417'> +7.8263929e+04 </wgt>
<wgt id='1418'> +7.1604679e+04 </wgt>
<wgt id='1419'> +9.0560235e+04 </wgt>
<wgt id='1420'> +7.5555263e+04 </wgt>
<wgt id='1421'> +8.4367290e+04 </wgt>
<wgt id='1422'> +8.2679949e+04 </wgt>
<wgt id='1423'> +7.8731468e+04 </wgt>
<wgt id='1424'> +8.2828388e+04 </wgt>
<wgt id='1425'> +7.7800175e+04 </wgt>
<wgt id='1426'> +7.9702322e+04 </wgt>
<wgt id='1427'> +7.9763296e+04 </wgt>
<wgt id='1428'> +7.1409305e+04 </wgt>
<wgt id='1429'> +7.8622371e+04 </wgt>
<wgt id='1430'> +8.1577959e+04 </wgt>
<wgt id='1431'> +8.0363170e+04 </wgt>
<wgt id='1432'> +8.1125918e+04 </wgt>
<wgt id='1433'> +7.9926399e+04 </wgt>
<wgt id='1434'> +8.0606857e+04 </wgt>
<wgt id='1435'> +8.0183773e+04 </wgt>
<wgt id='1436'> +8.1089828e+04 </wgt>
<wgt id='1437'> +7.9140150e+04 </wgt>
<wgt id='1438'> +7.9754544e+04 </wgt>
<wgt id='1439'> +8.0220003e+04 </wgt>
<wgt id='1440'> +8.0585049e+04 </wgt>
<wgt id='1441'> +8.0999409e+04 </wgt>
<wgt id='1442'> +8.1217704e+04 </wgt>
<wgt id='1443'> +8.0684706e+04 </wgt>
<wgt id='1444'> +7.9798302e+04 </wgt>
<wgt id='1445'> +8.1240760e+04 </wgt>
<wgt id='1446'> +8.0932591e+04 </wgt>
<wgt id='1447'> +7.9159662e+04 </wgt>
<wgt id='1448'> +7.8448036e+04 </wgt>
<wgt id='1449'> +8.2027467e+04 </wgt>
<wgt id='1450'> +8.0434739e+04 </wgt>
<wgt id='1451'> +8.1747007e+04 </wgt>
<wgt id='1452'> +8.0572993e+04 </wgt>
<wgt id='1453'> +7.9805842e+04 </wgt>
<wgt id='1454'> +8.0599676e+04 </wgt>
<wgt id='1455'> +8.0003498e+04 </wgt>
<wgt id='1456'> +8.0135663e+04 </wgt>
<wgt id='1457'> +7.8860546e+04 </wgt>
<wgt id='1458'> +8.0565706e+04 </wgt>
<wgt id='1459'> +8.0358433e+04 </wgt>
<wgt id='1460'> +8.1108443e+04 </wgt>
<wgt id='1461'> +7.9341733e+04 </wgt>
<wgt id='1462'> +7.9811549e+04 </wgt>
<wgt id='1463'> +8.0176260e+04 </wgt>
<wgt id='1464'> +8.0996186e+04 </wgt>
<wgt id='1465'> +8.0260607e+04 </wgt>
<wgt id='1466'> +8.0240014e+04 </wgt>
<wgt id='1467'> +8.1046330e+04 </wgt>
<wgt id='1468'> +8.0027874e+04 </wgt>
<wgt id='1469'> +8.0827157e+04 </wgt>
<wgt id='1470'> +8.0652289e+04 </wgt>
<wgt id='1471'> +8.0227087e+04 </wgt>
<wgt id='1472'> +8.0157770e+04 </wgt>
<wgt id='1473'> +8.0786844e+04 </wgt>
<wgt id='1474'> +8.0526473e+04 </wgt>
<wgt id='1475'> +8.0513167e+04 </wgt>
<wgt id='1476'> +8.0231999e+04 </wgt>
<wgt id='1477'> +8.0315122e+04 </wgt>
<wgt id='1478'> +7.9724306e+04 </wgt>
<wgt id='1479'> +8.0275336e+04 </wgt>
<wgt id='1480'> +8.0640494e+04 </wgt>
<wgt id='1481'> +8.0468076e+04 </wgt>
<wgt id='1482'> +7.8622371e+04 </wgt>
<wgt id='1483'> +8.1577959e+04 </wgt>
<wgt id='1484'> +7.9397313e+04 </wgt>
<wgt id='1485'> +8.2614572e+04 </wgt>
<wgt id='1486'> +8.1149220e+04 </wgt>
<wgt id='1487'> +7.7577871e+04 </wgt>
<wgt id='1488'> +7.9039448e+04 </wgt>
<wgt id='1489'> +8.2781252e+04 </wgt>
<wgt id='1490'> +6.8693944e+04 </wgt>
<wgt id='1491'> +8.3029102e+04 </wgt>
<wgt id='1492'> +8.3594479e+04 </wgt>
<wgt id='1493'> +8.6072546e+04 </wgt>
<wgt id='1494'> +7.7081236e+04 </wgt>
<wgt id='1495'> +8.3502221e+04 </wgt>
<wgt id='1496'> +8.0098816e+04 </wgt>
<wgt id='1497'> +8.3527846e+04 </wgt>
<wgt id='1498'> +7.3989521e+04 </wgt>
<wgt id='1499'> +7.9839826e+04 </wgt>
<wgt id='1500'> +7.7558239e+04 </wgt>
<wgt id='1501'> +7.0370253e+04 </wgt>
<wgt id='1502'> +8.1262917e+04 </wgt>
<wgt id='1503'> +8.0864988e+04 </wgt>
<wgt id='1504'> +7.9687291e+04 </wgt>
<wgt id='1505'> +7.9495318e+04 </wgt>
<wgt id='1506'> +8.0043159e+04 </wgt>
<wgt id='1507'> +7.5234798e+04 </wgt>
<wgt id='1508'> +7.2017240e+04 </wgt>
<wgt id='1509'> +8.1228831e+04 </wgt>
<wgt id='1510'> +8.8221299e+04 </wgt>
<wgt id='1511'> +7.5050079e+04 </wgt>
<wgt id='1512'> +7.7462431e+04 </wgt>
<wgt id='1513'> +8.3043031e+04 </wgt>
<wgt id='1514'> +8.3460469e+04 </wgt>
<wgt id='1515'> +7.7514978e+04 </wgt>
<wgt id='1516'> +7.8755852e+04 </wgt>
<wgt id='1517'> +7.8152467e+04 </wgt>
<wgt id='1518'> +7.7107816e+04 </wgt>
<wgt id='1519'> +8.0163303e+04 </wgt>
<wgt id='1520'> +8.1412676e+04 </wgt>
<wgt id='1521'> +7.3540890e+04 </wgt>
<wgt id='1522'> +7.6854471e+04 </wgt>
<wgt id='1523'> +8.2961090e+04 </wgt>
<wgt id='1524'> +7.4509685e+04 </wgt>
<wgt id='1525'> +7.8358320e+04 </wgt>
<wgt id='1526'> +7.8228004e+04 </wgt>
<wgt id='1527'> +7.4493519e+04 </wgt>
<wgt id='1528'> +8.1738074e+04 </wgt>
<wgt id='1529'> +8.0545278e+04 </wgt>
<wgt id='1530'> +8.4654412e+04 </wgt>
<wgt id='1531'> +8.5143112e+04 </wgt>
<wgt id='1532'> +7.5640175e+04 </wgt>
<wgt id='1533'> +6.9621695e+04 </wgt>
<wgt id='1534'> +8.1123369e+04 </wgt>
<wgt id='1535'> +8.1435870e+04 </wgt>
<wgt id='1536'> +7.6114402e+04 </wgt>
<wgt id='1537'> +8.1875813e+04 </wgt>
<wgt id='1538'> +8.1722635e+04 </wgt>
<wgt id='1539'> +7.9102366e+04 </wgt>
<wgt id='1540'> +8.0633795e+04 </wgt>
<wgt id='1541'> +7.8343074e+04 </wgt>
<wgt id='1542'> +7.6209498e+04 </wgt>
<wgt id='1543'> +8.0310772e+04 </wgt>
<wgt id='1544'> +8.0540509e+04 </wgt>
<wgt id='1545'> +7.9034598e+04 </wgt>
<wgt id='1546'> +8.1967372e+04 </wgt>
<wgt id='1547'> +8.9134468e+04 </wgt>
<wgt id='1548'> +8.2159333e+04 </wgt>
<wgt id='1549'> +8.5040226e+04 </wgt>
<wgt id='1550'> +8.3096442e+04 </wgt>
<wgt id='1551'> +7.7203126e+04 </wgt>
<wgt id='1552'> +8.2720279e+04 </wgt>
<wgt id='1553'> +7.3909414e+04 </wgt>
<wgt id='1554'> +7.7959724e+04 </wgt>
<wgt id='1555'> +7.6406164e+04 </wgt>
<wgt id='1556'> +8.4936882e+04 </wgt>
<wgt id='1557'> +7.6646893e+04 </wgt>
<wgt id='1558'> +7.6489101e+04 </wgt>
<wgt id='1559'> +7.9168118e+04 </wgt>
<wgt id='1560'> +7.5363971e+04 </wgt>
<wgt id='1561'> +9.1811287e+04 </wgt>
<wgt id='1562'> +8.0192005e+04 </wgt>
<wgt id='1563'> +7.9347393e+04 </wgt>
<wgt id='1564'> +7.8605525e+04 </wgt>
<wgt id='1565'> +7.8359877e+04 </wgt>
<wgt id='1566'> +7.2637296e+04 </wgt>
<wgt id='1567'> +7.3617740e+04 </wgt>
<wgt id='1568'> +7.4919654e+04 </wgt>
<wgt id='1569'> +7.9719842e+04 </wgt>
<wgt id='1570'> +7.8798084e+04 </wgt>
<wgt id='1571'> +7.9232929e+04 </wgt>
<wgt id='1572'> +8.0580605e+04 </wgt>
<wgt id='1573'> +8.1575108e+04 </wgt>
<wgt id='1574'> +8.2801757e+04 </wgt>
<wgt id='1575'> +7.6333263e+04 </wgt>
<wgt id='1576'> +7.8203002e+04 </wgt>
<wgt id='1577'> +8.0641585e+04 </wgt>
<wgt id='1578'> +9.0080217e+04 </wgt>
<wgt id='1579'> +7.8020968e+04 </wgt>
<wgt id='1580'> +8.2022933e+04 </wgt>
<wgt id='1581'> +7.8630536e+04 </wgt>
<wgt id='1582'> +7.1189316e+04 </wgt>
<wgt id='1583'> +7.8594540e+04 </wgt>
<wgt id='1584'> +7.8031531e+04 </wgt>
<wgt id='1585'> +7.6524699e+04 </wgt>
<wgt id='1586'> +8.0250047e+04 </wgt>
<wgt id='1587'> +7.8417712e+04 </wgt>
<wgt id='1588'> +7.8622371e+04 </wgt>
<wgt id='1589'> +7.9982048e+04 </wgt>
<wgt id='1590'> +8.0254638e+04 </wgt>
<wgt id='1591'> +8.1577959e+04 </wgt>
<wgt id='1592'> +8.2722792e+04 </wgt>
<wgt id='1593'> +7.7987687e+04 </wgt>
<wgt id='1594'> +7.6625132e+04 </wgt>
<wgt id='1595'> +7.7705902e+04 </wgt>
<wgt id='1596'> +8.5310212e+04 </wgt>
<wgt id='1597'> +7.2528945e+04 </wgt>
<wgt id='1598'> +8.0577578e+04 </wgt>
<wgt id='1599'> +7.5294146e+04 </wgt>
<wgt id='1600'> +7.7552740e+04 </wgt>
<wgt id='1601'> +7.7528173e+04 </wgt>
<wgt id='1602'> +7.9805927e+04 </wgt>
<wgt id='1603'> +7.7051518e+04 </wgt>
<wgt id='1604'> +7.7866334e+04 </wgt>
<wgt id='1605'> +7.7736963e+04 </wgt>
<wgt id='1606'> +8.3379273e+04 </wgt>
<wgt id='1607'> +7.3369784e+04 </wgt>
<wgt id='1608'> +7.5904070e+04 </wgt>
<wgt id='1609'> +8.0045487e+04 </wgt>
<wgt id='1610'> +7.0427049e+04 </wgt>
<wgt id='1611'> +8.6558109e+04 </wgt>
<wgt id='1612'> +7.2094144e+04 </wgt>
<wgt id='1613'> +8.8585409e+04 </wgt>
<wgt id='1614'> +7.8326540e+04 </wgt>
<wgt id='1615'> +7.7086030e+04 </wgt>
<wgt id='1616'> +7.3843723e+04 </wgt>
<wgt id='1617'> +8.1781590e+04 </wgt>
<wgt id='1618'> +7.8536731e+04 </wgt>
<wgt id='1619'> +7.6336671e+04 </wgt>
<wgt id='1620'> +7.9038874e+04 </wgt>
<wgt id='1621'> +7.6901307e+04 </wgt>
<wgt id='1622'> +7.6110470e+04 </wgt>
<wgt id='1623'> +7.8770082e+04 </wgt>
<wgt id='1624'> +7.8856086e+04 </wgt>
<wgt id='1625'> +7.5230391e+04 </wgt>
<wgt id='1626'> +8.0416448e+04 </wgt>
<wgt id='1627'> +7.3929879e+04 </wgt>
<wgt id='1628'> +7.9462369e+04 </wgt>
<wgt id='1629'> +7.7931690e+04 </wgt>
<wgt id='1630'> +7.1188084e+04 </wgt>
<wgt id='1631'> +8.5695485e+04 </wgt>
<wgt id='1632'> +7.3694359e+04 </wgt>
<wgt id='1633'> +8.1677721e+04 </wgt>
<wgt id='1634'> +7.1656000e+04 </wgt>
<wgt id='1635'> +8.4637014e+04 </wgt>
<wgt id='1636'> +8.1720061e+04 </wgt>
<wgt id='1637'> +7.5194316e+04 </wgt>
<wgt id='1638'> +7.6089251e+04 </wgt>
<wgt id='1639'> +7.9948025e+04 </wgt>
<wgt id='1640'> +7.9187676e+04 </wgt>
<wgt id='1641'> +7.4914158e+04 </wgt>
<wgt id='1642'> +7.6085350e+04 </wgt>
<wgt id='1643'> +7.8376041e+04 </wgt>
<wgt id='1644'> +7.2405528e+04 </wgt>
<wgt id='1645'> +8.3637943e+04 </wgt>
<wgt id='1646'> +7.7115904e+04 </wgt>
<wgt id='1647'> +8.1388648e+04 </wgt>
<wgt id='1648'> +7.7251934e+04 </wgt>
<wgt id='1649'> +7.9529790e+04 </wgt>
<wgt id='1650'> +7.9136963e+04 </wgt>
<wgt id='1651'> +7.6349374e+04 </wgt>
<wgt id='1652'> +7.5815566e+04 </wgt>
<wgt id='1653'> +7.6922493e+04 </wgt>
<wgt id='1654'> +7.9014350e+04 </wgt>
<wgt id='1655'> +8.0016427e+04 </wgt>
<wgt id='1656'> +8.4459401e+04 </wgt>
<wgt id='1657'> +8.4238552e+04 </wgt>
<wgt id='1658'> +8.3304923e+04 </wgt>
<wgt id='1659'> +8.1560802e+04 </wgt>
<wgt id='1660'> +8.6505710e+04 </wgt>
<wgt id='1661'> +8.3869422e+04 </wgt>
<wgt id='1662'> +8.5305877e+04 </wgt>
<wgt id='1663'> +8.3527615e+04 </wgt>
<wgt id='1664'> +8.3768109e+04 </wgt>
<wgt id='1665'> +8.5252127e+04 </wgt>
<wgt id='1666'> +8.3516990e+04 </wgt>
<wgt id='1667'> +8.0024547e+04 </wgt>
<wgt id='1668'> +8.8462593e+04 </wgt>
<wgt id='1669'> +8.0286680e+04 </wgt>
<wgt id='1670'> +9.0643932e+04 </wgt>
<wgt id='1671'> +8.1632429e+04 </wgt>
<wgt id='1672'> +9.0702998e+04 </wgt>
<wgt id='1673'> +8.8439384e+04 </wgt>
<wgt id='1674'> +8.2289727e+04 </wgt>
<wgt id='1675'> +8.2718439e+04 </wgt>
<wgt id='1676'> +8.6865496e+04 </wgt>
<wgt id='1677'> +9.0456559e+04 </wgt>
<wgt id='1678'> +7.9543749e+04 </wgt>
<wgt id='1679'> +9.0330881e+04 </wgt>
<wgt id='1680'> +8.0184704e+04 </wgt>
<wgt id='1681'> +9.0048678e+04 </wgt>
<wgt id='1682'> +7.9280071e+04 </wgt>
<wgt id='1683'> +8.4625716e+04 </wgt>
<wgt id='1684'> +8.4694521e+04 </wgt>
<wgt id='1685'> +8.3960612e+04 </wgt>
<wgt id='1686'> +8.4979794e+04 </wgt>
<wgt id='1687'> +7.8429818e+04 </wgt>
<wgt id='1688'> +9.4107095e+04 </wgt>
<wgt id='1689'> +8.4980947e+04 </wgt>
<wgt id='1690'> +8.4265227e+04 </wgt>
<wgt id='1691'> +7.8571430e+04 </wgt>
<wgt id='1692'> +9.1466706e+04 </wgt>
<wgt id='1693'> +8.1533191e+04 </wgt>
<wgt id='1694'> +8.7500625e+04 </wgt>
<wgt id='1695'> +8.2334749e+04 </wgt>
<wgt id='1696'> +8.5743034e+04 </wgt>
<wgt id='1697'> +8.5107829e+04 </wgt>
<wgt id='1698'> +8.3630485e+04 </wgt>
<wgt id='1699'> +9.1172314e+04 </wgt>
<wgt id='1700'> +7.6502972e+04 </wgt>
<wgt id='1701'> +8.8382463e+04 </wgt>
<wgt id='1702'> +8.1027874e+04 </wgt>
<wgt id='1703'> +8.9519999e+04 </wgt>
<wgt id='1704'> +8.0638841e+04 </wgt>
<wgt id='1705'> +8.3062706e+04 </wgt>
<wgt id='1706'> +8.6550335e+04 </wgt>
<wgt id='1707'> +8.4209672e+04 </wgt>
<wgt id='1708'> +8.4705254e+04 </wgt>
<wgt id='1709'> +8.3524574e+04 </wgt>
<wgt id='1710'> +8.6435503e+04 </wgt>
<wgt id='1711'> +7.9031946e+04 </wgt>
<wgt id='1712'> +8.7788257e+04 </wgt>
<wgt id='1713'> +8.5101031e+04 </wgt>
<wgt id='1714'> +8.3045435e+04 </wgt>
<wgt id='1715'> +8.6318353e+04 </wgt>
<wgt id='1716'> +7.9124839e+04 </wgt>
<wgt id='1717'> +8.2619257e+04 </wgt>
<wgt id='1718'> +8.3397049e+04 </wgt>
<wgt id='1719'> +8.1623102e+04 </wgt>
<wgt id='1720'> +8.2460993e+04 </wgt>
<wgt id='1721'> +8.2763830e+04 </wgt>
<wgt id='1722'> +8.1280330e+04 </wgt>
<wgt id='1723'> +8.4809443e+04 </wgt>
<wgt id='1724'> +8.0762032e+04 </wgt>
<wgt id='1725'> +8.4125404e+04 </wgt>
<wgt id='1726'> +8.1593250e+04 </wgt>
<wgt id='1727'> +8.3677156e+04 </wgt>
<wgt id='1728'> +8.3147106e+04 </wgt>
<wgt id='1729'> +8.2110375e+04 </wgt>
<wgt id='1730'> +8.2134807e+04 </wgt>
<wgt id='1731'> +8.2962030e+04 </wgt>
<wgt id='1732'> +8.3493323e+04 </wgt>
<wgt id='1733'> +8.3493323e+04 </wgt>
<wgt id='1734'> +8.4017705e+04 </wgt>
<wgt id='1735'> +8.1665205e+04 </wgt>
<wgt id='1736'> +8.3201360e+04 </wgt>
<wgt id='1737'> +8.1823649e+04 </wgt>
<wgt id='1738'> +8.3154335e+04 </wgt>
<wgt id='1739'> +8.1751978e+04 </wgt>
<wgt id='1740'> +8.3148119e+04 </wgt>
<wgt id='1741'> +8.1346449e+04 </wgt>
<wgt id='1742'> +8.1770404e+04 </wgt>
<wgt id='1743'> +8.3596331e+04 </wgt>
<wgt id='1744'> +8.2295612e+04 </wgt>
<wgt id='1745'> +8.3492698e+04 </wgt>
<wgt id='1746'> +8.3322173e+04 </wgt>
<wgt id='1747'> +8.2201927e+04 </wgt>
<wgt id='1748'> +8.2528385e+04 </wgt>
<wgt id='1749'> +8.2813104e+04 </wgt>
<wgt id='1750'> +8.3071899e+04 </wgt>
<wgt id='1751'> +8.2135810e+04 </wgt>
<wgt id='1752'> +8.2335624e+04 </wgt>
<wgt id='1753'> +8.3012742e+04 </wgt>
<wgt id='1754'> +8.3263620e+04 </wgt>
<wgt id='1755'> +8.2263584e+04 </wgt>
<wgt id='1756'> +8.3119317e+04 </wgt>
<wgt id='1757'> +8.1358678e+04 </wgt>
<wgt id='1758'> +8.1771790e+04 </wgt>
<wgt id='1759'> +8.3184835e+04 </wgt>
<wgt id='1760'> +8.2987823e+04 </wgt>
<wgt id='1761'> +8.2427857e+04 </wgt>
<wgt id='1762'> +8.2460026e+04 </wgt>
<wgt id='1763'> +8.2913041e+04 </wgt>
<wgt id='1764'> +8.2670560e+04 </wgt>
<wgt id='1765'> +8.2403200e+04 </wgt>
<wgt id='1766'> +8.2396612e+04 </wgt>
<wgt id='1767'> +8.3076749e+04 </wgt>
<wgt id='1768'> +8.3573850e+04 </wgt>
<wgt id='1769'> +8.1807126e+04 </wgt>
<wgt id='1770'> +8.2798243e+04 </wgt>
<wgt id='1771'> +8.2765470e+04 </wgt>
<wgt id='1772'> +8.2906372e+04 </wgt>
<wgt id='1773'> +8.2573900e+04 </wgt>
<wgt id='1774'> +8.5644828e+04 </wgt>
<wgt id='1775'> +8.0856024e+04 </wgt>
<wgt id='1776'> +7.9525185e+04 </wgt>
<wgt id='1777'> +8.5107728e+04 </wgt>
<wgt id='1778'> +8.5099942e+04 </wgt>
<wgt id='1779'> +8.1267623e+04 </wgt>
<wgt id='1780'> +7.8063814e+04 </wgt>
<wgt id='1781'> +8.4159700e+04 </wgt>
<wgt id='1782'> +8.2619257e+04 </wgt>
<wgt id='1783'> +8.3162485e+04 </wgt>
<wgt id='1784'> +8.0002440e+04 </wgt>
<wgt id='1785'> +8.0091300e+04 </wgt>
<wgt id='1786'> +8.3357465e+04 </wgt>
<wgt id='1787'> +7.9889782e+04 </wgt>
<wgt id='1788'> +8.2440009e+04 </wgt>
<wgt id='1789'> +7.9888367e+04 </wgt>
<wgt id='1790'> +8.0591918e+04 </wgt>
<wgt id='1791'> +8.0038932e+04 </wgt>
<wgt id='1792'> +8.0977842e+04 </wgt>
<wgt id='1793'> +7.8989885e+04 </wgt>
<wgt id='1794'> +8.0399854e+04 </wgt>
<wgt id='1795'> +8.0453470e+04 </wgt>
<wgt id='1796'> +8.0215835e+04 </wgt>
<wgt id='1797'> +7.9400466e+04 </wgt>
<wgt id='1798'> +8.0119237e+04 </wgt>
<wgt id='1799'> +8.0072705e+04 </wgt>
<wgt id='1800'> +7.2692771e+04 </wgt>
<wgt id='1801'> +8.0042872e+04 </wgt>
<wgt id='1802'> +7.9429983e+04 </wgt>
<wgt id='1803'> +7.9300869e+04 </wgt>
<wgt id='1804'> +7.9598743e+04 </wgt>
<wgt id='1805'> +8.0323722e+04 </wgt>
<wgt id='1806'> +7.9293200e+04 </wgt>
<wgt id='1807'> +7.9702610e+04 </wgt>
<wgt id='1808'> +8.0093431e+04 </wgt>
<wgt id='1809'> +8.0314257e+04 </wgt>
<wgt id='1810'> +8.0142275e+04 </wgt>
<wgt id='1811'> +7.9964951e+04 </wgt>
<wgt id='1812'> +8.0195563e+04 </wgt>
<wgt id='1813'> +8.1446892e+04 </wgt>
<wgt id='1814'> +7.9755320e+04 </wgt>
<wgt id='1815'> +7.9965926e+04 </wgt>
<wgt id='1816'> +8.0029786e+04 </wgt>
<wgt id='1817'> +7.9840073e+04 </wgt>
<wgt id='1818'> +7.9980436e+04 </wgt>
<wgt id='1819'> +8.0033014e+04 </wgt>
<wgt id='1820'> +8.0421467e+04 </wgt>
<wgt id='1821'> +7.9680399e+04 </wgt>
<wgt id='1822'> +7.9826632e+04 </wgt>
<wgt id='1823'> +8.0110205e+04 </wgt>
<wgt id='1824'> +8.0105525e+04 </wgt>
<wgt id='1825'> +7.8985997e+04 </wgt>
<wgt id='1826'> +8.0880889e+04 </wgt>
<wgt id='1827'> +8.3351891e+04 </wgt>
<wgt id='1828'> +8.3406072e+04 </wgt>
<wgt id='1829'> +8.3240809e+04 </wgt>
<wgt id='1830'> +8.3419291e+04 </wgt>
<wgt id='1831'> +8.3225711e+04 </wgt>
<wgt id='1832'> +8.3512897e+04 </wgt>
<wgt id='1833'> +8.3134244e+04 </wgt>
<wgt id='1834'> +8.2732164e+04 </wgt>
<wgt id='1835'> +8.3902852e+04 </wgt>
<wgt id='1836'> +8.3556523e+04 </wgt>
<wgt id='1837'> +8.3077279e+04 </wgt>
<wgt id='1838'> +8.3484785e+04 </wgt>
<wgt id='1839'> +8.3161299e+04 </wgt>
<wgt id='1840'> +8.3198868e+04 </wgt>
<wgt id='1841'> +8.3459670e+04 </wgt>
<wgt id='1842'> +8.3540245e+04 </wgt>
<wgt id='1843'> +8.3463848e+04 </wgt>
<wgt id='1844'> +8.3296236e+04 </wgt>
<wgt id='1845'> +8.3326477e+04 </wgt>
<wgt id='1846'> +8.3231609e+04 </wgt>
<wgt id='1847'> +8.3400323e+04 </wgt>
<wgt id='1848'> +8.3974421e+04 </wgt>
<wgt id='1849'> +8.2512024e+04 </wgt>
<wgt id='1850'> +8.5479287e+04 </wgt>
<wgt id='1851'> +8.1308221e+04 </wgt>
<wgt id='1852'> +8.8283569e+04 </wgt>
<wgt id='1853'> +7.8894692e+04 </wgt>
<wgt id='1854'> +8.6832682e+04 </wgt>
<wgt id='1855'> +8.0279024e+04 </wgt>
<wgt id='1856'> +8.8952531e+04 </wgt>
<wgt id='1857'> +8.8929997e+04 </wgt>
<wgt id='1858'> +8.8943532e+04 </wgt>
<wgt id='1859'> +8.8851082e+04 </wgt>
<wgt id='1860'> +8.8960606e+04 </wgt>
<wgt id='1861'> +8.9495201e+04 </wgt>
<wgt id='1862'> +8.9534434e+04 </wgt>
<wgt id='1863'> +8.7916823e+04 </wgt>
<wgt id='1864'> +8.9172277e+04 </wgt>
<wgt id='1865'> +8.8852909e+04 </wgt>
<wgt id='1866'> +8.8610760e+04 </wgt>
<wgt id='1867'> +8.8876264e+04 </wgt>
<wgt id='1868'> +8.8366615e+04 </wgt>
<wgt id='1869'> +8.9135628e+04 </wgt>
<wgt id='1870'> +8.8369127e+04 </wgt>
<wgt id='1871'> +8.9094141e+04 </wgt>
<wgt id='1872'> +8.8791720e+04 </wgt>
<wgt id='1873'> +8.8948795e+04 </wgt>
<wgt id='1874'> +8.8860802e+04 </wgt>
<wgt id='1875'> +8.9175162e+04 </wgt>
<wgt id='1876'> +8.8666780e+04 </wgt>
<wgt id='1877'> +8.9459554e+04 </wgt>
<wgt id='1878'> +8.8983940e+04 </wgt>
<wgt id='1879'> +8.9073840e+04 </wgt>
<wgt id='1880'> +8.9265879e+04 </wgt>
<wgt id='1881'> +8.9198916e+04 </wgt>
<wgt id='1882'> +8.8872705e+04 </wgt>
<wgt id='1883'> +8.8880138e+04 </wgt>
<wgt id='1884'> +8.8951699e+04 </wgt>
<wgt id='1885'> +8.7964877e+04 </wgt>
<wgt id='1886'> +2.9088963e+04 </wgt>
<wgt id='1887'> +3.9204354e+04 </wgt>
<wgt id='1888'> +4.7432125e+04 </wgt>
<wgt id='1889'> +5.5192343e+04 </wgt>
</rwgt>
</event>
<event npLO=" -1 " npNLO=" 0 ">
 5      0 +7.4519530e+04 3.98110800e+01 7.55820760e-03 9.59687950e-02
       -1 -1    0    0    0  501 +0.0000000000e+00 +0.0000000000e+00 +1.2222056108e+01 1.2222056108e+01 0.0000000000e+00 0.0000e+00 1.0000e+00
        2 -1    0    0  501    0 +0.0000000000e+00 +0.0000000000e+00 -1.3564533748e+02 1.3564533748e+02 0.0000000000e+00 0.0000e+00 -1.0000e+00
       24  2    1    2    0    0 +0.0000000000e+00 +0.0000000000e+00 -1.2342328137e+02 1.4786739359e+02 8.1433774944e+01 0.0000e+00 0.0000e+00
      -15  1    3    3    0    0 +2.5591021230e+01 +3.0470366650e+01 -4.6232906585e+01 6.1024445853e+01 1.7770000000e+00 0.0000e+00 1.0000e+00
       16  1    3    3    0    0 -2.5591021230e+01 -3.0470366650e+01 -7.7190374784e+01 8.6842947732e+01 0.0000000000e+00 0.0000e+00 -1.0000e+00
#aMCatNLO 1  0  0  2  2 0.20252377E+04 0.00000000E+00 -9  5  0 0.00000000E+00 0.00000000E+00 0.00000000E+00 0.00000000E+00 0.00000000E+00
<rwgt>
<wgt id='1001'> +7.4519530e+04 </wgt>
<wgt id='1002'> +7.4807325e+04 </wgt>
<wgt id='1003'> +7.4161108e+04 </wgt>
<wgt id='1004'> +8.2511221e+04 </wgt>
<wgt id='1005'> +8.2899403e+04 </wgt>
<wgt id='1006'> +8.2027765e+04 </wgt>
<wgt id='1007'> +6.5679180e+04 </wgt>
<wgt id='1008'> +6.5878404e+04 </wgt>
<wgt id='1009'> +6.5431061e+04 </wgt>
<wgt id='1010'> +7.4519530e+04 </wgt>
<wgt id='1011'> +7.4456928e+04 </wgt>
<wgt id='1012'> +7.4531479e+04 </wgt>
<wgt id='1013'> +7.4277887e+04 </wgt>
<wgt id='1014'> +7.4799115e+04 </wgt>
<wgt id='1015'> +7.4323409e+04 </wgt>
<wgt id='1016'> +7.4534772e+04 </wgt>
<wgt id='1017'> +7.4658148e+04 </wgt>
<wgt id='1018'> +7.4354703e+04 </wgt>
<wgt id='1019'> +7.4707972e+04 </wgt>
<wgt id='1020'> +7.4283410e+04 </wgt>
<wgt id='1021'> +7.4472064e+04 </wgt>
<wgt id='1022'> +7.4576491e+04 </wgt>
<wgt id='1023'> +7.4669031e+04 </wgt>
<wgt id='1024'> +7.4486855e+04 </wgt>
<wgt id='1025'> +7.5095355e+04 </wgt>
<wgt id='1026'> +7.4221746e+04 </wgt>
<wgt id='1027'> +7.4469165e+04 </wgt>
<wgt id='1028'> +7.4105513e+04 </wgt>
<wgt id='1029'> +7.4567525e+04 </wgt>
<wgt id='1030'> +7.4978987e+04 </wgt>
<wgt id='1031'> +7.4538845e+04 </wgt>
<wgt id='1032'> +7.4752654e+04 </wgt>
<wgt id='1033'> +7.4221536e+04 </wgt>
<wgt id='1034'> +7.4393769e+04 </wgt>
<wgt id='1035'> +7.4184228e+04 </wgt>
<wgt id='1036'> +7.4279258e+04 </wgt>
<wgt id='1037'> +7.5295898e+04 </wgt>
<wgt id='1038'> +7.4787565e+04 </wgt>
<wgt id='1039'> +7.4396708e+04 </wgt>
<wgt id='1040'> +7.4501045e+04 </wgt>
<wgt id='1041'> +7.4702471e+04 </wgt>
<wgt id='1042'> +7.4637201e+04 </wgt>
<wgt id='1043'> +7.4425741e+04 </wgt>
<wgt id='1044'> +7.4495268e+04 </wgt>
<wgt id='1045'> +7.4600617e+04 </wgt>
<wgt id='1046'> +7.4550515e+04 </wgt>
<wgt id='1047'> +7.4381794e+04 </wgt>
<wgt id='1048'> +7.4705735e+04 </wgt>
<wgt id='1049'> +7.4634389e+04 </wgt>
<wgt id='1050'> +7.4483932e+04 </wgt>
<wgt id='1051'> +7.4694010e+04 </wgt>
<wgt id='1052'> +7.4617223e+04 </wgt>
<wgt id='1053'> +7.4175479e+04 </wgt>
<wgt id='1054'> +7.4533697e+04 </wgt>
<wgt id='1055'> +7.4486377e+04 </wgt>
<wgt id='1056'> +7.4754929e+04 </wgt>
<wgt id='1057'> +7.4394976e+04 </wgt>
<wgt id='1058'> +7.4603557e+04 </wgt>
<wgt id='1059'> +7.4445014e+04 </wgt>
<wgt id='1060'> +7.4527991e+04 </wgt>
<wgt id='1061'> +7.4502065e+04 </wgt>
<wgt id='1062'> +7.4597967e+04 </wgt>
<wgt id='1063'> +7.4410119e+04 </wgt>
<wgt id='1064'> +7.4513668e+04 </wgt>
<wgt id='1065'> +7.4531761e+04 </wgt>
<wgt id='1066'> +7.4733148e+04 </wgt>
<wgt id='1067'> +7.4532521e+04 </wgt>
<wgt id='1068'> +7.4535377e+04 </wgt>
<wgt id='1069'> +7.4500223e+04 </wgt>
<wgt id='1070'> +7.4507710e+04 </wgt>
<wgt id='1071'> +7.4498145e+04 </wgt>
<wgt id='1072'> +7.4483627e+04 </wgt>
<wgt id='1073'> +7.4604708e+04 </wgt>
<wgt id='1074'> +7.4541240e+04 </wgt>
<wgt id='1075'> +7.4460092e+04 </wgt>
<wgt id='1076'> +7.4582671e+04 </wgt>
<wgt id='1077'> +7.4535385e+04 </wgt>
<wgt id='1078'> +7.4611356e+04 </wgt>
<wgt id='1079'> +7.4584615e+04 </wgt>
<wgt id='1080'> +7.4472286e+04 </wgt>
<wgt id='1081'> +7.4565696e+04 </wgt>
<wgt id='1082'> +7.4575874e+04 </wgt>
<wgt id='1083'> +7.4519911e+04 </wgt>
<wgt id='1084'> +7.4627181e+04 </wgt>
<wgt id='1085'> +7.4494653e+04 </wgt>
<wgt id='1086'> +7.4490432e+04 </wgt>
<wgt id='1087'> +7.4556511e+04 </wgt>
<wgt id='1088'> +7.4504892e+04 </wgt>
<wgt id='1089'> +7.4490471e+04 </wgt>
<wgt id='1090'> +7.4520510e+04 </wgt>
<wgt id='1091'> +7.4529422e+04 </wgt>
<wgt id='1092'> +7.4517978e+04 </wgt>
<wgt id='1093'> +7.4547208e+04 </wgt>
<wgt id='1094'> +7.4580640e+04 </wgt>
<wgt id='1095'> +7.4541115e+04 </wgt>
<wgt id='1096'> +7.4490482e+04 </wgt>
<wgt id='1097'> +7.4548221e+04 </wgt>
<wgt id='1098'> +7.4490541e+04 </wgt>
<wgt id='1099'> +7.4553086e+04 </wgt>
<wgt id='1100'> +7.4542513e+04 </wgt>
<wgt id='1101'> +7.4538158e+04 </wgt>
<wgt id='1102'> +7.4560342e+04 </wgt>
<wgt id='1103'> +7.4529849e+04 </wgt>
<wgt id='1104'> +7.4531084e+04 </wgt>
<wgt id='1105'> +7.4534729e+04 </wgt>
<wgt id='1106'> +7.4549518e+04 </wgt>
<wgt id='1107'> +7.4532879e+04 </wgt>
<wgt id='1108'> +7.4530706e+04 </wgt>
<wgt id='1109'> +7.4515260e+04 </wgt>
<wgt id='1110'> +7.4519533e+04 </wgt>
<wgt id='1111'> +7.4103111e+04 </wgt>
<wgt id='1112'> +7.4983246e+04 </wgt>
<wgt id='1113'> +7.4519533e+04 </wgt>
<wgt id='1114'> +7.8688797e+04 </wgt>
<wgt id='1115'> +7.4180737e+04 </wgt>
<wgt id='1116'> +6.9019620e+04 </wgt>
<wgt id='1117'> +7.3276344e+04 </wgt>
<wgt id='1118'> +7.3934860e+04 </wgt>
<wgt id='1119'> +7.6792384e+04 </wgt>
<wgt id='1120'> +7.4894698e+04 </wgt>
<wgt id='1121'> +7.1638268e+04 </wgt>
<wgt id='1122'> +7.2312768e+04 </wgt>
<wgt id='1123'> +7.4103839e+04 </wgt>
<wgt id='1124'> +7.4513048e+04 </wgt>
<wgt id='1125'> +7.2820813e+04 </wgt>
<wgt id='1126'> +7.4646570e+04 </wgt>
<wgt id='1127'> +7.3219931e+04 </wgt>
<wgt id='1128'> +7.5095401e+04 </wgt>
<wgt id='1129'> +7.5616636e+04 </wgt>
<wgt id='1130'> +7.7486405e+04 </wgt>
<wgt id='1131'> +7.4444194e+04 </wgt>
<wgt id='1132'> +7.4849917e+04 </wgt>
<wgt id='1133'> +7.2044389e+04 </wgt>
<wgt id='1134'> +7.2739319e+04 </wgt>
<wgt id='1135'> +7.5142645e+04 </wgt>
<wgt id='1136'> +7.6077798e+04 </wgt>
<wgt id='1137'> +7.4686432e+04 </wgt>
<wgt id='1138'> +7.3038915e+04 </wgt>
<wgt id='1139'> +7.4829800e+04 </wgt>
<wgt id='1140'> +7.7989687e+04 </wgt>
<wgt id='1141'> +7.4150701e+04 </wgt>
<wgt id='1142'> +7.6989995e+04 </wgt>
<wgt id='1143'> +7.5742312e+04 </wgt>
<wgt id='1144'> +7.4470884e+04 </wgt>
<wgt id='1145'> +7.3245106e+04 </wgt>
<wgt id='1146'> +7.4949163e+04 </wgt>
<wgt id='1147'> +7.3477314e+04 </wgt>
<wgt id='1148'> +7.6016222e+04 </wgt>
<wgt id='1149'> +7.3748820e+04 </wgt>
<wgt id='1150'> +7.4717781e+04 </wgt>
<wgt id='1151'> +7.3806939e+04 </wgt>
<wgt id='1152'> +7.2458420e+04 </wgt>
<wgt id='1153'> +7.3291784e+04 </wgt>
<wgt id='1154'> +7.4412502e+04 </wgt>
<wgt id='1155'> +7.5893838e+04 </wgt>
<wgt id='1156'> +7.6283228e+04 </wgt>
<wgt id='1157'> +7.5661300e+04 </wgt>
<wgt id='1158'> +7.4714108e+04 </wgt>
<wgt id='1159'> +7.6574040e+04 </wgt>
<wgt id='1160'> +7.5224608e+04 </wgt>
<wgt id='1161'> +7.2195206e+04 </wgt>
<wgt id='1162'> +7.6655560e+04 </wgt>
<wgt id='1163'> +7.6767662e+04 </wgt>
<wgt id='1164'> +7.3474377e+04 </wgt>
<wgt id='1165'> +7.3369465e+04 </wgt>
<wgt id='1166'> +7.5646957e+04 </wgt>
<wgt id='1167'> +7.6956267e+04 </wgt>
<wgt id='1168'> +7.3482128e+04 </wgt>
<wgt id='1169'> +7.4536735e+04 </wgt>
<wgt id='1170'> +7.6916893e+04 </wgt>
<wgt id='1171'> +7.3372829e+04 </wgt>
<wgt id='1172'> +7.4357279e+04 </wgt>
<wgt id='1173'> +7.4188554e+04 </wgt>
<wgt id='1174'> +7.5240247e+04 </wgt>
<wgt id='1175'> +7.4945757e+04 </wgt>
<wgt id='1176'> +7.5486127e+04 </wgt>
<wgt id='1177'> +7.1566423e+04 </wgt>
<wgt id='1178'> +7.5945211e+04 </wgt>
<wgt id='1179'> +7.4587022e+04 </wgt>
<wgt id='1180'> +7.4964713e+04 </wgt>
<wgt id='1181'> +7.5782642e+04 </wgt>
<wgt id='1182'> +7.5440510e+04 </wgt>
<wgt id='1183'> +7.5083165e+04 </wgt>
<wgt id='1184'> +7.3249431e+04 </wgt>
<wgt id='1185'> +7.7656820e+04 </wgt>
<wgt id='1186'> +7.0173670e+04 </wgt>
<wgt id='1187'> +7.1904848e+04 </wgt>
<wgt id='1188'> +7.3573788e+04 </wgt>
<wgt id='1189'> +7.5342786e+04 </wgt>
<wgt id='1190'> +7.2730586e+04 </wgt>
<wgt id='1191'> +7.4760574e+04 </wgt>
<wgt id='1192'> +7.3904325e+04 </wgt>
<wgt id='1193'> +7.5721551e+04 </wgt>
<wgt id='1194'> +7.4453931e+04 </wgt>
<wgt id='1195'> +7.5616636e+04 </wgt>
<wgt id='1196'> +7.4501992e+04 </wgt>
<wgt id='1197'> +7.3624418e+04 </wgt>
<wgt id='1198'> +7.3416257e+04 </wgt>
<wgt id='1199'> +7.7365078e+04 </wgt>
<wgt id='1200'> +7.4777713e+04 </wgt>
<wgt id='1201'> +7.6307369e+04 </wgt>
<wgt id='1202'> +7.1949624e+04 </wgt>
<wgt id='1203'> +7.4136706e+04 </wgt>
<wgt id='1204'> +7.4865988e+04 </wgt>
<wgt id='1205'> +7.3397058e+04 </wgt>
<wgt id='1206'> +7.4452846e+04 </wgt>
<wgt id='1207'> +7.6487403e+04 </wgt>
<wgt id='1208'> +7.3818969e+04 </wgt>
<wgt id='1209'> +7.3654145e+04 </wgt>
<wgt id='1210'> +7.4801780e+04 </wgt>
<wgt id='1211'> +7.3522828e+04 </wgt>
<wgt id='1212'> +7.2887686e+04 </wgt>
<wgt id='1213'> +7.4159965e+04 </wgt>
<wgt id='1214'> +7.4555875e+04 </wgt>
<wgt id='1215'> +7.3413323e+04 </wgt>
<wgt id='1216'> +7.3462993e+04 </wgt>
<wgt id='1217'> +7.3435119e+04 </wgt>
<wgt id='1218'> +7.3786560e+04 </wgt>
<wgt id='1219'> +7.4679318e+04 </wgt>
<wgt id='1220'> +7.4808458e+04 </wgt>
<wgt id='1221'> +7.5467584e+04 </wgt>
<wgt id='1222'> +7.5503743e+04 </wgt>
<wgt id='1223'> +7.3465620e+04 </wgt>
<wgt id='1224'> +7.3504360e+04 </wgt>
<wgt id='1225'> +7.3561121e+04 </wgt>
<wgt id='1226'> +7.3378612e+04 </wgt>
<wgt id='1227'> +7.3859401e+04 </wgt>
<wgt id='1228'> +7.3513892e+04 </wgt>
<wgt id='1229'> +7.3238291e+04 </wgt>
<wgt id='1230'> +7.3624602e+04 </wgt>
<wgt id='1231'> +7.3574427e+04 </wgt>
<wgt id='1232'> +7.3613605e+04 </wgt>
<wgt id='1233'> +7.3016236e+04 </wgt>
<wgt id='1234'> +7.3359781e+04 </wgt>
<wgt id='1235'> +7.3594083e+04 </wgt>
<wgt id='1236'> +7.3725809e+04 </wgt>
<wgt id='1237'> +7.3539795e+04 </wgt>
<wgt id='1238'> +7.3120017e+04 </wgt>
<wgt id='1239'> +7.3988967e+04 </wgt>
<wgt id='1240'> +7.3196129e+04 </wgt>
<wgt id='1241'> +7.3718730e+04 </wgt>
<wgt id='1242'> +7.3553091e+04 </wgt>
<wgt id='1243'> +7.3166945e+04 </wgt>
<wgt id='1244'> +7.3895438e+04 </wgt>
<wgt id='1245'> +7.3422062e+04 </wgt>
<wgt id='1246'> +7.3094091e+04 </wgt>
<wgt id='1247'> +7.3986202e+04 </wgt>
<wgt id='1248'> +7.3236968e+04 </wgt>
<wgt id='1249'> +7.3563973e+04 </wgt>
<wgt id='1250'> +7.3417817e+04 </wgt>
<wgt id='1251'> +7.3370637e+04 </wgt>
<wgt id='1252'> +7.4059553e+04 </wgt>
<wgt id='1253'> +7.3586980e+04 </wgt>
<wgt id='1254'> +7.3232284e+04 </wgt>
<wgt id='1255'> +7.3533842e+04 </wgt>
<wgt id='1256'> +7.3369733e+04 </wgt>
<wgt id='1257'> +7.3585499e+04 </wgt>
<wgt id='1258'> +7.3573384e+04 </wgt>
<wgt id='1259'> +7.3474935e+04 </wgt>
<wgt id='1260'> +7.3409091e+04 </wgt>
<wgt id='1261'> +7.3499749e+04 </wgt>
<wgt id='1262'> +7.3393868e+04 </wgt>
<wgt id='1263'> +7.3437591e+04 </wgt>
<wgt id='1264'> +7.3294515e+04 </wgt>
<wgt id='1265'> +7.3378097e+04 </wgt>
<wgt id='1266'> +7.3481016e+04 </wgt>
<wgt id='1267'> +7.3452111e+04 </wgt>
<wgt id='1268'> +7.3494519e+04 </wgt>
<wgt id='1269'> +7.3474170e+04 </wgt>
<wgt id='1270'> +7.3405069e+04 </wgt>
<wgt id='1271'> +7.3489926e+04 </wgt>
<wgt id='1272'> +7.3617537e+04 </wgt>
<wgt id='1273'> +7.3462020e+04 </wgt>
<wgt id='1274'> +7.3411415e+04 </wgt>
<wgt id='1275'> +7.3401515e+04 </wgt>
<wgt id='1276'> +7.3376823e+04 </wgt>
<wgt id='1277'> +7.3484748e+04 </wgt>
<wgt id='1278'> +7.3457172e+04 </wgt>
<wgt id='1279'> +7.3697144e+04 </wgt>
<wgt id='1280'> +7.3395228e+04 </wgt>
<wgt id='1281'> +7.3367303e+04 </wgt>
<wgt id='1282'> +7.3445372e+04 </wgt>
<wgt id='1283'> +7.3541575e+04 </wgt>
<wgt id='1284'> +7.3470404e+04 </wgt>
<wgt id='1285'> +7.3506235e+04 </wgt>
<wgt id='1286'> +7.3452754e+04 </wgt>
<wgt id='1287'> +7.3501867e+04 </wgt>
<wgt id='1288'> +7.3507379e+04 </wgt>
<wgt id='1289'> +7.3419012e+04 </wgt>
<wgt id='1290'> +7.3449945e+04 </wgt>
<wgt id='1291'> +7.3450319e+04 </wgt>
<wgt id='1292'> +7.3419447e+04 </wgt>
<wgt id='1293'> +7.3344765e+04 </wgt>
<wgt id='1294'> +7.3481855e+04 </wgt>
<wgt id='1295'> +7.3480291e+04 </wgt>
<wgt id='1296'> +7.3419794e+04 </wgt>
<wgt id='1297'> +7.3460622e+04 </wgt>
<wgt id='1298'> +7.3339259e+04 </wgt>
<wgt id='1299'> +7.3466633e+04 </wgt>
<wgt id='1300'> +7.3429615e+04 </wgt>
<wgt id='1301'> +7.3427154e+04 </wgt>
<wgt id='1302'> +7.3415526e+04 </wgt>
<wgt id='1303'> +7.3521277e+04 </wgt>
<wgt id='1304'> +7.3409619e+04 </wgt>
<wgt id='1305'> +7.3499211e+04 </wgt>
<wgt id='1306'> +7.3523300e+04 </wgt>
<wgt id='1307'> +7.3479390e+04 </wgt>
<wgt id='1308'> +7.3487182e+04 </wgt>
<wgt id='1309'> +7.3430182e+04 </wgt>
<wgt id='1310'> +7.3471448e+04 </wgt>
<wgt id='1311'> +7.3438091e+04 </wgt>
<wgt id='1312'> +7.3449920e+04 </wgt>
<wgt id='1313'> +7.3501120e+04 </wgt>
<wgt id='1314'> +7.3462868e+04 </wgt>
<wgt id='1315'> +7.3459131e+04 </wgt>
<wgt id='1316'> +7.3522651e+04 </wgt>
<wgt id='1317'> +7.3400486e+04 </wgt>
<wgt id='1318'> +7.3453936e+04 </wgt>
<wgt id='1319'> +7.3491592e+04 </wgt>
<wgt id='1320'> +7.3472861e+04 </wgt>
<wgt id='1321'> +7.3464774e+04 </wgt>
<wgt id='1322'> +7.3487636e+04 </wgt>
<wgt id='1323'> +7.3510007e+04 </wgt>
<wgt id='1324'> +7.3152349e+04 </wgt>
<wgt id='1325'> +7.3930601e+04 </wgt>
<wgt id='1326'> +7.1837473e+04 </wgt>
<wgt id='1327'> +6.8427460e+04 </wgt>
<wgt id='1328'> +7.4857700e+04 </wgt>
<wgt id='1329'> +7.4308156e+04 </wgt>
<wgt id='1330'> +7.5349917e+04 </wgt>
<wgt id='1331'> +7.5038836e+04 </wgt>
<wgt id='1332'> +7.4615721e+04 </wgt>
<wgt id='1333'> +7.4795771e+04 </wgt>
<wgt id='1334'> +7.3093687e+04 </wgt>
<wgt id='1335'> +7.4639926e+04 </wgt>
<wgt id='1336'> +7.5535388e+04 </wgt>
<wgt id='1337'> +7.4547293e+04 </wgt>
<wgt id='1338'> +7.5528553e+04 </wgt>
<wgt id='1339'> +7.5469775e+04 </wgt>
<wgt id='1340'> +7.3282442e+04 </wgt>
<wgt id='1341'> +7.4560950e+04 </wgt>
<wgt id='1342'> +7.5598363e+04 </wgt>
<wgt id='1343'> +7.5906658e+04 </wgt>
<wgt id='1344'> +7.5095009e+04 </wgt>
<wgt id='1345'> +7.5767547e+04 </wgt>
<wgt id='1346'> +7.5781921e+04 </wgt>
<wgt id='1347'> +7.5891605e+04 </wgt>
<wgt id='1348'> +7.3891063e+04 </wgt>
<wgt id='1349'> +7.5519706e+04 </wgt>
<wgt id='1350'> +7.4496230e+04 </wgt>
<wgt id='1351'> +7.4951148e+04 </wgt>
<wgt id='1352'> +7.5781016e+04 </wgt>
<wgt id='1353'> +7.6840548e+04 </wgt>
<wgt id='1354'> +7.4790722e+04 </wgt>
<wgt id='1355'> +7.4757738e+04 </wgt>
<wgt id='1356'> +7.4619877e+04 </wgt>
<wgt id='1357'> +7.4620892e+04 </wgt>
<wgt id='1358'> +7.5040033e+04 </wgt>
<wgt id='1359'> +7.4449891e+04 </wgt>
<wgt id='1360'> +7.5952751e+04 </wgt>
<wgt id='1361'> +7.6310908e+04 </wgt>
<wgt id='1362'> +7.6395653e+04 </wgt>
<wgt id='1363'> +7.5324705e+04 </wgt>
<wgt id='1364'> +7.5320187e+04 </wgt>
<wgt id='1365'> +7.4989969e+04 </wgt>
<wgt id='1366'> +7.4561862e+04 </wgt>
<wgt id='1367'> +7.6332563e+04 </wgt>
<wgt id='1368'> +7.4816954e+04 </wgt>
<wgt id='1369'> +7.3814801e+04 </wgt>
<wgt id='1370'> +7.3797610e+04 </wgt>
<wgt id='1371'> +7.5475830e+04 </wgt>
<wgt id='1372'> +7.6121112e+04 </wgt>
<wgt id='1373'> +7.4087395e+04 </wgt>
<wgt id='1374'> +7.5008415e+04 </wgt>
<wgt id='1375'> +7.4658306e+04 </wgt>
<wgt id='1376'> +7.4830773e+04 </wgt>
<wgt id='1377'> +7.4673010e+04 </wgt>
<wgt id='1378'> +7.3415763e+04 </wgt>
<wgt id='1379'> +7.4988994e+04 </wgt>
<wgt id='1380'> +7.5518673e+04 </wgt>
<wgt id='1381'> +7.5176594e+04 </wgt>
<wgt id='1382'> +7.3789810e+04 </wgt>
<wgt id='1383'> +7.4470167e+04 </wgt>
<wgt id='1384'> +7.5038048e+04 </wgt>
<wgt id='1385'> +7.3475710e+04 </wgt>
<wgt id='1386'> +7.5444131e+04 </wgt>
<wgt id='1387'> +7.3135906e+04 </wgt>
<wgt id='1388'> +7.4856679e+04 </wgt>
<wgt id='1389'> +7.4522043e+04 </wgt>
<wgt id='1390'> +7.3599609e+04 </wgt>
<wgt id='1391'> +7.4399522e+04 </wgt>
<wgt id='1392'> +7.4295181e+04 </wgt>
<wgt id='1393'> +7.2827081e+04 </wgt>
<wgt id='1394'> +7.4989969e+04 </wgt>
<wgt id='1395'> +7.5936585e+04 </wgt>
<wgt id='1396'> +7.4140896e+04 </wgt>
<wgt id='1397'> +7.5432954e+04 </wgt>
<wgt id='1398'> +7.5414075e+04 </wgt>
<wgt id='1399'> +7.5067974e+04 </wgt>
<wgt id='1400'> +7.6025528e+04 </wgt>
<wgt id='1401'> +7.5270988e+04 </wgt>
<wgt id='1402'> +7.5098601e+04 </wgt>
<wgt id='1403'> +7.5472599e+04 </wgt>
<wgt id='1404'> +7.5219136e+04 </wgt>
<wgt id='1405'> +7.4511297e+04 </wgt>
<wgt id='1406'> +7.3829736e+04 </wgt>
<wgt id='1407'> +7.5943686e+04 </wgt>
<wgt id='1408'> +7.4891449e+04 </wgt>
<wgt id='1409'> +7.3347018e+04 </wgt>
<wgt id='1410'> +7.5185052e+04 </wgt>
<wgt id='1411'> +7.5147959e+04 </wgt>
<wgt id='1412'> +7.5178184e+04 </wgt>
<wgt id='1413'> +7.5633821e+04 </wgt>
<wgt id='1414'> +7.3289918e+04 </wgt>
<wgt id='1415'> +7.4127660e+04 </wgt>
<wgt id='1416'> +7.4308132e+04 </wgt>
<wgt id='1417'> +7.4935092e+04 </wgt>
<wgt id='1418'> +7.5680348e+04 </wgt>
<wgt id='1419'> +7.4227775e+04 </wgt>
<wgt id='1420'> +7.3477910e+04 </wgt>
<wgt id='1421'> +7.5513728e+04 </wgt>
<wgt id='1422'> +7.4632515e+04 </wgt>
<wgt id='1423'> +7.5145156e+04 </wgt>
<wgt id='1424'> +7.2834175e+04 </wgt>
<wgt id='1425'> +7.4379330e+04 </wgt>
<wgt id='1426'> +7.4312754e+04 </wgt>
<wgt id='1427'> +7.5325843e+04 </wgt>
<wgt id='1428'> +7.5638853e+04 </wgt>
<wgt id='1429'> +7.4873462e+04 </wgt>
<wgt id='1430'> +7.4664612e+04 </wgt>
<wgt id='1431'> +7.4784022e+04 </wgt>
<wgt id='1432'> +7.4884260e+04 </wgt>
<wgt id='1433'> +7.4799439e+04 </wgt>
<wgt id='1434'> +7.4747136e+04 </wgt>
<wgt id='1435'> +7.4650584e+04 </wgt>
<wgt id='1436'> +7.4406299e+04 </wgt>
<wgt id='1437'> +7.5155650e+04 </wgt>
<wgt id='1438'> +7.4935418e+04 </wgt>
<wgt id='1439'> +7.4430318e+04 </wgt>
<wgt id='1440'> +7.4760561e+04 </wgt>
<wgt id='1441'> +7.4617696e+04 </wgt>
<wgt id='1442'> +7.4883311e+04 </wgt>
<wgt id='1443'> +7.4681370e+04 </wgt>
<wgt id='1444'> +7.4567694e+04 </wgt>
<wgt id='1445'> +7.4885419e+04 </wgt>
<wgt id='1446'> +7.4539772e+04 </wgt>
<wgt id='1447'> +7.4635523e+04 </wgt>
<wgt id='1448'> +7.4894583e+04 </wgt>
<wgt id='1449'> +7.4830338e+04 </wgt>
<wgt id='1450'> +7.4764072e+04 </wgt>
<wgt id='1451'> +7.4736700e+04 </wgt>
<wgt id='1452'> +7.4697477e+04 </wgt>
<wgt id='1453'> +7.4756701e+04 </wgt>
<wgt id='1454'> +7.4752797e+04 </wgt>
<wgt id='1455'> +7.4878143e+04 </wgt>
<wgt id='1456'> +7.4806995e+04 </wgt>
<wgt id='1457'> +7.4806677e+04 </wgt>
<wgt id='1458'> +7.4659169e+04 </wgt>
<wgt id='1459'> +7.4673915e+04 </wgt>
<wgt id='1460'> +7.4858184e+04 </wgt>
<wgt id='1461'> +7.4751814e+04 </wgt>
<wgt id='1462'> +7.4768423e+04 </wgt>
<wgt id='1463'> +7.4791061e+04 </wgt>
<wgt id='1464'> +7.4773940e+04 </wgt>
<wgt id='1465'> +7.4801721e+04 </wgt>
<wgt id='1466'> +7.4753834e+04 </wgt>
<wgt id='1467'> +7.4807165e+04 </wgt>
<wgt id='1468'> +7.4775886e+04 </wgt>
<wgt id='1469'> +7.4756800e+04 </wgt>
<wgt id='1470'> +7.4760108e+04 </wgt>
<wgt id='1471'> +7.4738713e+04 </wgt>
<wgt id='1472'> +7.4794008e+04 </wgt>
<wgt id='1473'> +7.4818412e+04 </wgt>
<wgt id='1474'> +7.4781155e+04 </wgt>
<wgt id='1475'> +7.4805379e+04 </wgt>
<wgt id='1476'> +7.4765733e+04 </wgt>
<wgt id='1477'> +7.4777709e+04 </wgt>
<wgt id='1478'> +7.4767869e+04 </wgt>
<wgt id='1479'> +7.4770628e+04 </wgt>
<wgt id='1480'> +7.4773397e+04 </wgt>
<wgt id='1481'> +7.4804170e+04 </wgt>
<wgt id='1482'> +7.4873462e+04 </wgt>
<wgt id='1483'> +7.4664612e+04 </wgt>
<wgt id='1484'> +7.4457688e+04 </wgt>
<wgt id='1485'> +7.4902383e+04 </wgt>
<wgt id='1486'> +7.4486756e+04 </wgt>
<wgt id='1487'> +7.5012217e+04 </wgt>
<wgt id='1488'> +7.4896391e+04 </wgt>
<wgt id='1489'> +7.4702242e+04 </wgt>
<wgt id='1490'> +7.3637025e+04 </wgt>
<wgt id='1491'> +7.3091937e+04 </wgt>
<wgt id='1492'> +7.4024011e+04 </wgt>
<wgt id='1493'> +7.5032246e+04 </wgt>
<wgt id='1494'> +7.3932402e+04 </wgt>
<wgt id='1495'> +7.3996023e+04 </wgt>
<wgt id='1496'> +7.4133944e+04 </wgt>
<wgt id='1497'> +7.3105264e+04 </wgt>
<wgt id='1498'> +7.5546153e+04 </wgt>
<wgt id='1499'> +7.4776678e+04 </wgt>
<wgt id='1500'> +7.3314636e+04 </wgt>
<wgt id='1501'> +7.4156057e+04 </wgt>
<wgt id='1502'> +7.5236835e+04 </wgt>
<wgt id='1503'> +7.3319875e+04 </wgt>
<wgt id='1504'> +7.4211541e+04 </wgt>
<wgt id='1505'> +7.4296203e+04 </wgt>
<wgt id='1506'> +7.5044851e+04 </wgt>
<wgt id='1507'> +7.4426296e+04 </wgt>
<wgt id='1508'> +7.2948370e+04 </wgt>
<wgt id='1509'> +7.3808912e+04 </wgt>
<wgt id='1510'> +7.3140941e+04 </wgt>
<wgt id='1511'> +7.3629899e+04 </wgt>
<wgt id='1512'> +7.4957226e+04 </wgt>
<wgt id='1513'> +7.3557587e+04 </wgt>
<wgt id='1514'> +7.5000578e+04 </wgt>
<wgt id='1515'> +7.4437661e+04 </wgt>
<wgt id='1516'> +7.3961175e+04 </wgt>
<wgt id='1517'> +7.4807749e+04 </wgt>
<wgt id='1518'> +7.4850395e+04 </wgt>
<wgt id='1519'> +7.4565698e+04 </wgt>
<wgt id='1520'> +7.3468867e+04 </wgt>
<wgt id='1521'> +7.4300549e+04 </wgt>
<wgt id='1522'> +7.4512343e+04 </wgt>
<wgt id='1523'> +7.4095031e+04 </wgt>
<wgt id='1524'> +7.5048739e+04 </wgt>
<wgt id='1525'> +7.5023744e+04 </wgt>
<wgt id='1526'> +7.4382497e+04 </wgt>
<wgt id='1527'> +7.4838909e+04 </wgt>
<wgt id='1528'> +7.4423051e+04 </wgt>
<wgt id='1529'> +7.4571200e+04 </wgt>
<wgt id='1530'> +7.3813051e+04 </wgt>
<wgt id='1531'> +7.3863949e+04 </wgt>
<wgt id='1532'> +7.3857141e+04 </wgt>
<wgt id='1533'> +7.4447798e+04 </wgt>
<wgt id='1534'> +7.4157360e+04 </wgt>
<wgt id='1535'> +7.4090445e+04 </wgt>
<wgt id='1536'> +7.4808839e+04 </wgt>
<wgt id='1537'> +7.3797787e+04 </wgt>
<wgt id='1538'> +7.5567461e+04 </wgt>
<wgt id='1539'> +7.5063563e+04 </wgt>
<wgt id='1540'> +7.4613474e+04 </wgt>
<wgt id='1541'> +7.5039108e+04 </wgt>
<wgt id='1542'> +7.4663392e+04 </wgt>
<wgt id='1543'> +7.4817927e+04 </wgt>
<wgt id='1544'> +7.5434929e+04 </wgt>
<wgt id='1545'> +7.4865513e+04 </wgt>
<wgt id='1546'> +7.4724491e+04 </wgt>
<wgt id='1547'> +7.5212986e+04 </wgt>
<wgt id='1548'> +7.4370568e+04 </wgt>
<wgt id='1549'> +7.4801147e+04 </wgt>
<wgt id='1550'> +7.4348721e+04 </wgt>
<wgt id='1551'> +7.5438630e+04 </wgt>
<wgt id='1552'> +7.4703595e+04 </wgt>
<wgt id='1553'> +7.5332092e+04 </wgt>
<wgt id='1554'> +7.2883722e+04 </wgt>
<wgt id='1555'> +7.4516042e+04 </wgt>
<wgt id='1556'> +7.4989776e+04 </wgt>
<wgt id='1557'> +7.4009830e+04 </wgt>
<wgt id='1558'> +7.4981662e+04 </wgt>
<wgt id='1559'> +7.5713199e+04 </wgt>
<wgt id='1560'> +7.5451531e+04 </wgt>
<wgt id='1561'> +7.4919812e+04 </wgt>
<wgt id='1562'> +7.4690405e+04 </wgt>
<wgt id='1563'> +7.5027874e+04 </wgt>
<wgt id='1564'> +7.4205682e+04 </wgt>
<wgt id='1565'> +7.3931396e+04 </wgt>
<wgt id='1566'> +7.4460393e+04 </wgt>
<wgt id='1567'> +7.5312112e+04 </wgt>
<wgt id='1568'> +7.4335240e+04 </wgt>
<wgt id='1569'> +7.5387083e+04 </wgt>
<wgt id='1570'> +7.4759276e+04 </wgt>
<wgt id='1571'> +7.5219555e+04 </wgt>
<wgt id='1572'> +7.4451243e+04 </wgt>
<wgt id='1573'> +7.4867854e+04 </wgt>
<wgt id='1574'> +7.2745519e+04 </wgt>
<wgt id='1575'> +7.4506309e+04 </wgt>
<wgt id='1576'> +7.5278829e+04 </wgt>
<wgt id='1577'> +7.4288289e+04 </wgt>
<wgt id='1578'> +7.4091457e+04 </wgt>
<wgt id='1579'> +7.4165665e+04 </wgt>
<wgt id='1580'> +7.5064820e+04 </wgt>
<wgt id='1581'> +7.4885283e+04 </wgt>
<wgt id='1582'> +7.5755560e+04 </wgt>
<wgt id='1583'> +7.2593373e+04 </wgt>
<wgt id='1584'> +7.2630092e+04 </wgt>
<wgt id='1585'> +7.2734113e+04 </wgt>
<wgt id='1586'> +7.0590505e+04 </wgt>
<wgt id='1587'> +7.4759717e+04 </wgt>
<wgt id='1588'> +7.4873462e+04 </wgt>
<wgt id='1589'> +7.4699485e+04 </wgt>
<wgt id='1590'> +7.4537931e+04 </wgt>
<wgt id='1591'> +7.4664612e+04 </wgt>
<wgt id='1592'> +7.4492945e+04 </wgt>
<wgt id='1593'> +7.3283308e+04 </wgt>
<wgt id='1594'> +7.2873467e+04 </wgt>
<wgt id='1595'> +7.2221560e+04 </wgt>
<wgt id='1596'> +7.2285991e+04 </wgt>
<wgt id='1597'> +7.4344429e+04 </wgt>
<wgt id='1598'> +7.1845532e+04 </wgt>
<wgt id='1599'> +7.4243434e+04 </wgt>
<wgt id='1600'> +7.0955701e+04 </wgt>
<wgt id='1601'> +7.5374157e+04 </wgt>
<wgt id='1602'> +7.2484130e+04 </wgt>
<wgt id='1603'> +7.4092658e+04 </wgt>
<wgt id='1604'> +7.3614667e+04 </wgt>
<wgt id='1605'> +7.3210694e+04 </wgt>
<wgt id='1606'> +7.3110043e+04 </wgt>
<wgt id='1607'> +7.2593704e+04 </wgt>
<wgt id='1608'> +7.2525323e+04 </wgt>
<wgt id='1609'> +7.3094764e+04 </wgt>
<wgt id='1610'> +7.2065895e+04 </wgt>
<wgt id='1611'> +7.4088735e+04 </wgt>
<wgt id='1612'> +7.4474952e+04 </wgt>
<wgt id='1613'> +7.0715896e+04 </wgt>
<wgt id='1614'> +7.3179562e+04 </wgt>
<wgt id='1615'> +7.3412863e+04 </wgt>
<wgt id='1616'> +7.2365665e+04 </wgt>
<wgt id='1617'> +7.3686010e+04 </wgt>
<wgt id='1618'> +7.3590684e+04 </wgt>
<wgt id='1619'> +7.2592608e+04 </wgt>
<wgt id='1620'> +7.2627946e+04 </wgt>
<wgt id='1621'> +7.3522241e+04 </wgt>
<wgt id='1622'> +7.3166617e+04 </wgt>
<wgt id='1623'> +7.2703087e+04 </wgt>
<wgt id='1624'> +7.3271461e+04 </wgt>
<wgt id='1625'> +7.2315574e+04 </wgt>
<wgt id='1626'> +7.2340566e+04 </wgt>
<wgt id='1627'> +7.3766258e+04 </wgt>
<wgt id='1628'> +7.4119543e+04 </wgt>
<wgt id='1629'> +7.2700314e+04 </wgt>
<wgt id='1630'> +7.4446807e+04 </wgt>
<wgt id='1631'> +7.1572222e+04 </wgt>
<wgt id='1632'> +7.1920153e+04 </wgt>
<wgt id='1633'> +7.4175098e+04 </wgt>
<wgt id='1634'> +7.4510440e+04 </wgt>
<wgt id='1635'> +7.1916408e+04 </wgt>
<wgt id='1636'> +7.2785186e+04 </wgt>
<wgt id='1637'> +7.3823504e+04 </wgt>
<wgt id='1638'> +7.2601627e+04 </wgt>
<wgt id='1639'> +7.3521518e+04 </wgt>
<wgt id='1640'> +7.4711184e+04 </wgt>
<wgt id='1641'> +7.1811637e+04 </wgt>
<wgt id='1642'> +7.3139124e+04 </wgt>
<wgt id='1643'> +7.2905788e+04 </wgt>
<wgt id='1644'> +7.3586824e+04 </wgt>
<wgt id='1645'> +7.2039106e+04 </wgt>
<wgt id='1646'> +7.3456483e+04 </wgt>
<wgt id='1647'> +7.3155843e+04 </wgt>
<wgt id='1648'> +7.3385602e+04 </wgt>
<wgt id='1649'> +7.3247140e+04 </wgt>
<wgt id='1650'> +7.3443167e+04 </wgt>
<wgt id='1651'> +7.3138296e+04 </wgt>
<wgt id='1652'> +7.2941458e+04 </wgt>
<wgt id='1653'> +7.3103178e+04 </wgt>
<wgt id='1654'> +7.3486926e+04 </wgt>
<wgt id='1655'> +7.3717098e+04 </wgt>
<wgt id='1656'> +7.4161044e+04 </wgt>
<wgt id='1657'> +7.3500770e+04 </wgt>
<wgt id='1658'> +7.3706408e+04 </wgt>
<wgt id='1659'> +7.3547400e+04 </wgt>
<wgt id='1660'> +7.4636090e+04 </wgt>
<wgt id='1661'> +7.5001226e+04 </wgt>
<wgt id='1662'> +7.3014687e+04 </wgt>
<wgt id='1663'> +7.3598096e+04 </wgt>
<wgt id='1664'> +7.3587900e+04 </wgt>
<wgt id='1665'> +7.3200142e+04 </wgt>
<wgt id='1666'> +7.4169600e+04 </wgt>
<wgt id='1667'> +7.3221552e+04 </wgt>
<wgt id='1668'> +7.4764185e+04 </wgt>
<wgt id='1669'> +7.4589658e+04 </wgt>
<wgt id='1670'> +7.3225804e+04 </wgt>
<wgt id='1671'> +7.4298304e+04 </wgt>
<wgt id='1672'> +7.3879002e+04 </wgt>
<wgt id='1673'> +7.4716843e+04 </wgt>
<wgt id='1674'> +7.3790009e+04 </wgt>
<wgt id='1675'> +7.4590299e+04 </wgt>
<wgt id='1676'> +7.3772417e+04 </wgt>
<wgt id='1677'> +7.3328311e+04 </wgt>
<wgt id='1678'> +7.4704717e+04 </wgt>
<wgt id='1679'> +7.3877690e+04 </wgt>
<wgt id='1680'> +7.5052903e+04 </wgt>
<wgt id='1681'> +7.3491244e+04 </wgt>
<wgt id='1682'> +7.4208237e+04 </wgt>
<wgt id='1683'> +7.4883480e+04 </wgt>
<wgt id='1684'> +7.3463857e+04 </wgt>
<wgt id='1685'> +7.4830919e+04 </wgt>
<wgt id='1686'> +7.3196525e+04 </wgt>
<wgt id='1687'> +7.4971610e+04 </wgt>
<wgt id='1688'> +7.2802461e+04 </wgt>
<wgt id='1689'> +7.4956456e+04 </wgt>
<wgt id='1690'> +7.3589406e+04 </wgt>
<wgt id='1691'> +7.3727241e+04 </wgt>
<wgt id='1692'> +7.3935543e+04 </wgt>
<wgt id='1693'> +7.5367117e+04 </wgt>
<wgt id='1694'> +7.3365702e+04 </wgt>
<wgt id='1695'> +7.4097115e+04 </wgt>
<wgt id='1696'> +7.3872716e+04 </wgt>
<wgt id='1697'> +7.4934804e+04 </wgt>
<wgt id='1698'> +7.3480129e+04 </wgt>
<wgt id='1699'> +7.2667914e+04 </wgt>
<wgt id='1700'> +7.5952052e+04 </wgt>
<wgt id='1701'> +7.3832656e+04 </wgt>
<wgt id='1702'> +7.4583329e+04 </wgt>
<wgt id='1703'> +7.4498695e+04 </wgt>
<wgt id='1704'> +7.4116266e+04 </wgt>
<wgt id='1705'> +7.2998356e+04 </wgt>
<wgt id='1706'> +7.4941174e+04 </wgt>
<wgt id='1707'> +7.2791245e+04 </wgt>
<wgt id='1708'> +7.5086836e+04 </wgt>
<wgt id='1709'> +7.3711013e+04 </wgt>
<wgt id='1710'> +7.4776857e+04 </wgt>
<wgt id='1711'> +7.3038079e+04 </wgt>
<wgt id='1712'> +7.4565161e+04 </wgt>
<wgt id='1713'> +7.3785668e+04 </wgt>
<wgt id='1714'> +7.4233307e+04 </wgt>
<wgt id='1715'> +7.1825967e+04 </wgt>
<wgt id='1716'> +7.4458962e+04 </wgt>
<wgt id='1717'> +7.0289495e+04 </wgt>
<wgt id='1718'> +7.0341393e+04 </wgt>
<wgt id='1719'> +7.0221754e+04 </wgt>
<wgt id='1720'> +6.9977320e+04 </wgt>
<wgt id='1721'> +7.0575269e+04 </wgt>
<wgt id='1722'> +7.0085534e+04 </wgt>
<wgt id='1723'> +7.0624257e+04 </wgt>
<wgt id='1724'> +7.0577740e+04 </wgt>
<wgt id='1725'> +7.0055385e+04 </wgt>
<wgt id='1726'> +7.0198106e+04 </wgt>
<wgt id='1727'> +7.0383512e+04 </wgt>
<wgt id='1728'> +6.9681192e+04 </wgt>
<wgt id='1729'> +7.0880293e+04 </wgt>
<wgt id='1730'> +7.0475367e+04 </wgt>
<wgt id='1731'> +7.0157415e+04 </wgt>
<wgt id='1732'> +7.0590034e+04 </wgt>
<wgt id='1733'> +7.0590034e+04 </wgt>
<wgt id='1734'> +7.0305901e+04 </wgt>
<wgt id='1735'> +7.0274766e+04 </wgt>
<wgt id='1736'> +7.0253684e+04 </wgt>
<wgt id='1737'> +7.0343008e+04 </wgt>
<wgt id='1738'> +7.0544660e+04 </wgt>
<wgt id='1739'> +6.9831614e+04 </wgt>
<wgt id='1740'> +7.0214716e+04 </wgt>
<wgt id='1741'> +7.0468868e+04 </wgt>
<wgt id='1742'> +7.0437804e+04 </wgt>
<wgt id='1743'> +7.0126117e+04 </wgt>
<wgt id='1744'> +7.0144890e+04 </wgt>
<wgt id='1745'> +7.0683839e+04 </wgt>
<wgt id='1746'> +7.0146902e+04 </wgt>
<wgt id='1747'> +7.0355149e+04 </wgt>
<wgt id='1748'> +7.0418032e+04 </wgt>
<wgt id='1749'> +6.9815883e+04 </wgt>
<wgt id='1750'> +7.0270369e+04 </wgt>
<wgt id='1751'> +7.0309389e+04 </wgt>
<wgt id='1752'> +7.0023960e+04 </wgt>
<wgt id='1753'> +7.0638036e+04 </wgt>
<wgt id='1754'> +7.0360302e+04 </wgt>
<wgt id='1755'> +7.0246459e+04 </wgt>
<wgt id='1756'> +7.0060107e+04 </wgt>
<wgt id='1757'> +7.0887052e+04 </wgt>
<wgt id='1758'> +7.0648017e+04 </wgt>
<wgt id='1759'> +6.9880596e+04 </wgt>
<wgt id='1760'> +7.0772945e+04 </wgt>
<wgt id='1761'> +6.9904311e+04 </wgt>
<wgt id='1762'> +7.0252615e+04 </wgt>
<wgt id='1763'> +7.0052205e+04 </wgt>
<wgt id='1764'> +7.0152625e+04 </wgt>
<wgt id='1765'> +7.0931511e+04 </wgt>
<wgt id='1766'> +7.0242944e+04 </wgt>
<wgt id='1767'> +7.0372989e+04 </wgt>
<wgt id='1768'> +7.0148866e+04 </wgt>
<wgt id='1769'> +7.0407763e+04 </wgt>
<wgt id='1770'> +7.0081258e+04 </wgt>
<wgt id='1771'> +7.0340209e+04 </wgt>
<wgt id='1772'> +7.0554502e+04 </wgt>
<wgt id='1773'> +7.0116214e+04 </wgt>
<wgt id='1774'> +6.9895787e+04 </wgt>
<wgt id='1775'> +7.0546838e+04 </wgt>
<wgt id='1776'> +7.0304150e+04 </wgt>
<wgt id='1777'> +7.0299782e+04 </wgt>
<wgt id='1778'> +6.9864359e+04 </wgt>
<wgt id='1779'> +7.0322000e+04 </wgt>
<wgt id='1780'> +7.1039663e+04 </wgt>
<wgt id='1781'> +7.0442415e+04 </wgt>
<wgt id='1782'> +7.0289495e+04 </wgt>
<wgt id='1783'> +7.0276021e+04 </wgt>
<wgt id='1784'> +7.2366185e+04 </wgt>
<wgt id='1785'> +7.2649882e+04 </wgt>
<wgt id='1786'> +7.0914135e+04 </wgt>
<wgt id='1787'> +7.2405747e+04 </wgt>
<wgt id='1788'> +7.2164333e+04 </wgt>
<wgt id='1789'> +7.2458994e+04 </wgt>
<wgt id='1790'> +7.2767721e+04 </wgt>
<wgt id='1791'> +7.2566591e+04 </wgt>
<wgt id='1792'> +7.1828609e+04 </wgt>
<wgt id='1793'> +7.2725266e+04 </wgt>
<wgt id='1794'> +7.2411532e+04 </wgt>
<wgt id='1795'> +7.1905385e+04 </wgt>
<wgt id='1796'> +7.2456085e+04 </wgt>
<wgt id='1797'> +7.2475065e+04 </wgt>
<wgt id='1798'> +7.2641489e+04 </wgt>
<wgt id='1799'> +7.2863342e+04 </wgt>
<wgt id='1800'> +7.2498429e+04 </wgt>
<wgt id='1801'> +7.3664103e+04 </wgt>
<wgt id='1802'> +7.3050282e+04 </wgt>
<wgt id='1803'> +7.2471813e+04 </wgt>
<wgt id='1804'> +7.2499402e+04 </wgt>
<wgt id='1805'> +7.2357890e+04 </wgt>
<wgt id='1806'> +7.2358386e+04 </wgt>
<wgt id='1807'> +7.2354934e+04 </wgt>
<wgt id='1808'> +7.2420788e+04 </wgt>
<wgt id='1809'> +7.2448236e+04 </wgt>
<wgt id='1810'> +7.2329973e+04 </wgt>
<wgt id='1811'> +7.2396386e+04 </wgt>
<wgt id='1812'> +7.2324183e+04 </wgt>
<wgt id='1813'> +7.2244103e+04 </wgt>
<wgt id='1814'> +7.2504872e+04 </wgt>
<wgt id='1815'> +7.2267523e+04 </wgt>
<wgt id='1816'> +7.2387404e+04 </wgt>
<wgt id='1817'> +7.2411966e+04 </wgt>
<wgt id='1818'> +7.2344125e+04 </wgt>
<wgt id='1819'> +7.2242118e+04 </wgt>
<wgt id='1820'> +7.2410357e+04 </wgt>
<wgt id='1821'> +7.2411863e+04 </wgt>
<wgt id='1822'> +7.2240013e+04 </wgt>
<wgt id='1823'> +7.2397336e+04 </wgt>
<wgt id='1824'> +7.2371457e+04 </wgt>
<wgt id='1825'> +7.2165682e+04 </wgt>
<wgt id='1826'> +7.2822178e+04 </wgt>
<wgt id='1827'> +8.0267240e+04 </wgt>
<wgt id='1828'> +8.0459656e+04 </wgt>
<wgt id='1829'> +8.0095570e+04 </wgt>
<wgt id='1830'> +8.0212162e+04 </wgt>
<wgt id='1831'> +8.0342129e+04 </wgt>
<wgt id='1832'> +8.0395191e+04 </wgt>
<wgt id='1833'> +8.0158968e+04 </wgt>
<wgt id='1834'> +7.9957497e+04 </wgt>
<wgt id='1835'> +8.0580604e+04 </wgt>
<wgt id='1836'> +8.0526313e+04 </wgt>
<wgt id='1837'> +8.0021503e+04 </wgt>
<wgt id='1838'> +8.0260272e+04 </wgt>
<wgt id='1839'> +8.0292991e+04 </wgt>
<wgt id='1840'> +8.0098246e+04 </wgt>
<wgt id='1841'> +8.0458858e+04 </wgt>
<wgt id='1842'> +8.0244919e+04 </wgt>
<wgt id='1843'> +8.0399054e+04 </wgt>
<wgt id='1844'> +8.0216357e+04 </wgt>
<wgt id='1845'> +8.0319621e+04 </wgt>
<wgt id='1846'> +8.0323468e+04 </wgt>
<wgt id='1847'> +8.0223249e+04 </wgt>
<wgt id='1848'> +7.9695458e+04 </wgt>
<wgt id='1849'> +8.0757473e+04 </wgt>
<wgt id='1850'> +8.0221623e+04 </wgt>
<wgt id='1851'> +8.0342903e+04 </wgt>
<wgt id='1852'> +8.0150478e+04 </wgt>
<wgt id='1853'> +8.0243983e+04 </wgt>
<wgt id='1854'> +8.0233389e+04 </wgt>
<wgt id='1855'> +8.0307420e+04 </wgt>
<wgt id='1856'> +7.0497788e+04 </wgt>
<wgt id='1857'> +7.0486522e+04 </wgt>
<wgt id='1858'> +7.0464920e+04 </wgt>
<wgt id='1859'> +7.0538190e+04 </wgt>
<wgt id='1860'> +7.0499939e+04 </wgt>
<wgt id='1861'> +7.0605423e+04 </wgt>
<wgt id='1862'> +7.0178215e+04 </wgt>
<wgt id='1863'> +7.0571999e+04 </wgt>
<wgt id='1864'> +7.0377338e+04 </wgt>
<wgt id='1865'> +7.0351195e+04 </wgt>
<wgt id='1866'> +7.0659867e+04 </wgt>
<wgt id='1867'> +7.0473092e+04 </wgt>
<wgt id='1868'> +7.0453701e+04 </wgt>
<wgt id='1869'> +7.0588654e+04 </wgt>
<wgt id='1870'> +7.0400786e+04 </wgt>
<wgt id='1871'> +7.0612416e+04 </wgt>
<wgt id='1872'> +7.0429781e+04 </wgt>
<wgt id='1873'> +7.0494321e+04 </wgt>
<wgt id='1874'> +7.0560531e+04 </wgt>
<wgt id='1875'> +7.0573134e+04 </wgt>
<wgt id='1876'> +7.0312310e+04 </wgt>
<wgt id='1877'> +7.0360761e+04 </wgt>
<wgt id='1878'> +7.0400524e+04 </wgt>
<wgt id='1879'> +7.0549784e+04 </wgt>
<wgt id='1880'> +7.0609084e+04 </wgt>
<wgt id='1881'> +7.0653471e+04 </wgt>
<wgt id='1882'> +7.0467998e+04 </wgt>
<wgt id='1883'> +7.0580021e+04 </wgt>
<wgt id='1884'> +7.0399043e+04 </wgt>
<wgt id='1885'> +7.0156830e+04 </wgt>
<wgt id='1886'> +7.7574928e+04 </wgt>
<wgt id='1887'> +7.6062393e+04 </wgt>
<wgt id='1888'> +6.4490750e+04 </wgt>
<wgt id='1889'> +6.9906383e+04 </wgt>
</rwgt>
</event>
<event npLO=" -1 " npNLO=" 0 ">
 5      1 +7.4519530e+04 3.00000000e+01 7.55820760e-03 1.20278470e-01
       -4 -1    0    0    0  501 +0.0000000000e+00 +0.0000000000e+00 +6.1116632825e+02 6.1116632825e+02 0.0000000000e+00 0.0000e+00 1.0000e+00
        3 -1    0    0  501    0 +0.0000000000e+00 +0.0000000000e+00 -2.6481088100e+00 2.6481088100e+00 0.0000000000e+00 0.0000e+00 -1.0000e+00
      -24  2    1    2    0    0 +0.0000000000e+00 +0.0000000000e+00 +6.0851821944e+02 6.1381443706e+02 8.0459553521e+01 0.0000e+00 0.0000e+00
       15  1    3    3    0    0 +2.5881185684e+01 +9.6242631418e+00 +8.1415850808e+01 8.5989305761e+01 1.7770000000e+00 0.0000e+00 -1.0000e+00
      -16  1    3    3    0    0 -2.5881185684e+01 -9.6242631418e+00 +5.2710236863e+02 5.2782513130e+02 0.0000000000e+00 0.0000e+00 1.0000e+00
#aMCatNLO 1  0  0  2  1 0.81586556E+02 0.00000000E+00 -9  5  0 0.00000000E+00 0.00000000E+00 0.00000000E+00 0.00000000E+00 0.00000000E+00
<rwgt>
<wgt id='1001'> +7.4519530e+04 </wgt>
<wgt id='1002'> +6.7341268e+04 </wgt>
<wgt id='1003'> +8.3463462e+04 </wgt>
<wgt id='1004'> +8.6884091e+04 </wgt>
<wgt id='1005'> +7.8514786e+04 </wgt>
<wgt id='1006'> +9.7312036e+04 </wgt>
<wgt id='1007'> +6.1289604e+04 </wgt>
<wgt id='1008'> +5.5385746e+04 </wgt>
<wgt id='1009'> +6.8645665e+04 </wgt>
<wgt id='1010'> +7.4519530e+04 </wgt>
<wgt id='1011'> +7.5251100e+04 </wgt>
<wgt id='1012'> +7.4722091e+04 </wgt>
<wgt id='1013'> +7.3725803e+04 </wgt>
<wgt id='1014'> +7.1854908e+04 </wgt>
<wgt id='1015'> +7.4948695e+04 </wgt>
<wgt id='1016'> +7.3504183e+04 </wgt>
<wgt id='1017'> +7.4124191e+04 </wgt>
<wgt id='1018'> +7.5667922e+04 </wgt>
<wgt id='1019'> +7.3613339e+04 </wgt>
<wgt id='1020'> +7.6267813e+04 </wgt>
<wgt id='1021'> +7.5590599e+04 </wgt>
<wgt id='1022'> +7.3514102e+04 </wgt>
<wgt id='1023'> +7.3687942e+04 </wgt>
<wgt id='1024'> +7.4835578e+04 </wgt>
<wgt id='1025'> +7.1734801e+04 </wgt>
<wgt id='1026'> +7.6362542e+04 </wgt>
<wgt id='1027'> +7.5049575e+04 </wgt>
<wgt id='1028'> +7.5720153e+04 </wgt>
<wgt id='1029'> +7.3014000e+04 </wgt>
<wgt id='1030'> +7.4555008e+04 </wgt>
<wgt id='1031'> +7.4409101e+04 </wgt>
<wgt id='1032'> +7.2767562e+04 </wgt>
<wgt id='1033'> +7.3904038e+04 </wgt>
<wgt id='1034'> +7.4661974e+04 </wgt>
<wgt id='1035'> +7.5553205e+04 </wgt>
<wgt id='1036'> +7.3930319e+04 </wgt>
<wgt id='1037'> +7.3281867e+04 </wgt>
<wgt id='1038'> +7.4607245e+04 </wgt>
<wgt id='1039'> +7.1824721e+04 </wgt>
<wgt id='1040'> +7.4579713e+04 </wgt>
<wgt id='1041'> +7.1200256e+04 </wgt>
<wgt id='1042'> +7.4918640e+04 </wgt>
<wgt id='1043'> +7.3802543e+04 </wgt>
<wgt id='1044'> +7.2878544e+04 </wgt>
<wgt id='1045'> +7.4173920e+04 </wgt>
<wgt id='1046'> +7.6077528e+04 </wgt>
<wgt id='1047'> +7.5166353e+04 </wgt>
<wgt id='1048'> +7.3868838e+04 </wgt>
<wgt id='1049'> +7.4232132e+04 </wgt>
<wgt id='1050'> +7.3020859e+04 </wgt>
<wgt id='1051'> +7.3462104e+04 </wgt>
<wgt id='1052'> +7.3978815e+04 </wgt>
<wgt id='1053'> +7.5085850e+04 </wgt>
<wgt id='1054'> +7.4579158e+04 </wgt>
<wgt id='1055'> +7.4825776e+04 </wgt>
<wgt id='1056'> +7.5154681e+04 </wgt>
<wgt id='1057'> +7.5299297e+04 </wgt>
<wgt id='1058'> +7.4249327e+04 </wgt>
<wgt id='1059'> +7.4271613e+04 </wgt>
<wgt id='1060'> +7.4996940e+04 </wgt>
<wgt id='1061'> +7.4591419e+04 </wgt>
<wgt id='1062'> +7.3586415e+04 </wgt>
<wgt id='1063'> +7.4184656e+04 </wgt>
<wgt id='1064'> +7.3751356e+04 </wgt>
<wgt id='1065'> +7.4260330e+04 </wgt>
<wgt id='1066'> +7.3642258e+04 </wgt>
<wgt id='1067'> +7.4409828e+04 </wgt>
<wgt id='1068'> +7.3898082e+04 </wgt>
<wgt id='1069'> +7.3397915e+04 </wgt>
<wgt id='1070'> +7.4049698e+04 </wgt>
<wgt id='1071'> +7.3617956e+04 </wgt>
<wgt id='1072'> +7.3571770e+04 </wgt>
<wgt id='1073'> +7.5756361e+04 </wgt>
<wgt id='1074'> +7.5546419e+04 </wgt>
<wgt id='1075'> +7.4467504e+04 </wgt>
<wgt id='1076'> +7.3406676e+04 </wgt>
<wgt id='1077'> +7.4302835e+04 </wgt>
<wgt id='1078'> +7.3799568e+04 </wgt>
<wgt id='1079'> +7.4336745e+04 </wgt>
<wgt id='1080'> +7.3370137e+04 </wgt>
<wgt id='1081'> +7.4794005e+04 </wgt>
<wgt id='1082'> +7.5169288e+04 </wgt>
<wgt id='1083'> +7.5100194e+04 </wgt>
<wgt id='1084'> +7.5270648e+04 </wgt>
<wgt id='1085'> +7.4761938e+04 </wgt>
<wgt id='1086'> +7.4246760e+04 </wgt>
<wgt id='1087'> +7.3423158e+04 </wgt>
<wgt id='1088'> +7.3806215e+04 </wgt>
<wgt id='1089'> +7.4804066e+04 </wgt>
<wgt id='1090'> +7.4399948e+04 </wgt>
<wgt id='1091'> +7.4894343e+04 </wgt>
<wgt id='1092'> +7.3744605e+04 </wgt>
<wgt id='1093'> +7.4006959e+04 </wgt>
<wgt id='1094'> +7.4048231e+04 </wgt>
<wgt id='1095'> +7.4688758e+04 </wgt>
<wgt id='1096'> +7.4172659e+04 </wgt>
<wgt id='1097'> +7.3577269e+04 </wgt>
<wgt id='1098'> +7.4540715e+04 </wgt>
<wgt id='1099'> +7.4123187e+04 </wgt>
<wgt id='1100'> +7.4995586e+04 </wgt>
<wgt id='1101'> +7.4439186e+04 </wgt>
<wgt id='1102'> +7.4168696e+04 </wgt>
<wgt id='1103'> +7.4592429e+04 </wgt>
<wgt id='1104'> +7.3863023e+04 </wgt>
<wgt id='1105'> +7.3922941e+04 </wgt>
<wgt id='1106'> +7.5311277e+04 </wgt>
<wgt id='1107'> +7.4892527e+04 </wgt>
<wgt id='1108'> +7.4373258e+04 </wgt>
<wgt id='1109'> +7.3838235e+04 </wgt>
<wgt id='1110'> +7.4519529e+04 </wgt>
<wgt id='1111'> +6.5909861e+04 </wgt>
<wgt id='1112'> +8.1607404e+04 </wgt>
<wgt id='1113'> +7.4519529e+04 </wgt>
<wgt id='1114'> +6.6025250e+04 </wgt>
<wgt id='1115'> +7.7467944e+04 </wgt>
<wgt id='1116'> +8.3292732e+04 </wgt>
<wgt id='1117'> +7.9951627e+04 </wgt>
<wgt id='1118'> +7.8093387e+04 </wgt>
<wgt id='1119'> +7.6447075e+04 </wgt>
<wgt id='1120'> +7.0755887e+04 </wgt>
<wgt id='1121'> +7.9461389e+04 </wgt>
<wgt id='1122'> +7.0337268e+04 </wgt>
<wgt id='1123'> +7.6470736e+04 </wgt>
<wgt id='1124'> +7.9717128e+04 </wgt>
<wgt id='1125'> +7.5544899e+04 </wgt>
<wgt id='1126'> +8.2126611e+04 </wgt>
<wgt id='1127'> +7.5245117e+04 </wgt>
<wgt id='1128'> +7.3857316e+04 </wgt>
<wgt id='1129'> +8.1353354e+04 </wgt>
<wgt id='1130'> +5.9437418e+04 </wgt>
<wgt id='1131'> +7.9144326e+04 </wgt>
<wgt id='1132'> +6.7800330e+04 </wgt>
<wgt id='1133'> +7.7618281e+04 </wgt>
<wgt id='1134'> +7.1029288e+04 </wgt>
<wgt id='1135'> +6.8979939e+04 </wgt>
<wgt id='1136'> +6.6950832e+04 </wgt>
<wgt id='1137'> +7.7969256e+04 </wgt>
<wgt id='1138'> +7.4500621e+04 </wgt>
<wgt id='1139'> +6.7141613e+04 </wgt>
<wgt id='1140'> +6.0058788e+04 </wgt>
<wgt id='1141'> +7.7324196e+04 </wgt>
<wgt id='1142'> +7.5078218e+04 </wgt>
<wgt id='1143'> +6.8462860e+04 </wgt>
<wgt id='1144'> +6.7268804e+04 </wgt>
<wgt id='1145'> +9.0373181e+04 </wgt>
<wgt id='1146'> +6.4315886e+04 </wgt>
<wgt id='1147'> +7.9931255e+04 </wgt>
<wgt id='1148'> +7.9653142e+04 </wgt>
<wgt id='1149'> +7.6436697e+04 </wgt>
<wgt id='1150'> +6.9762987e+04 </wgt>
<wgt id='1151'> +7.7685829e+04 </wgt>
<wgt id='1152'> +6.6217681e+04 </wgt>
<wgt id='1153'> +7.9828946e+04 </wgt>
<wgt id='1154'> +6.3403567e+04 </wgt>
<wgt id='1155'> +7.8321173e+04 </wgt>
<wgt id='1156'> +6.3859003e+04 </wgt>
<wgt id='1157'> +6.6143899e+04 </wgt>
<wgt id='1158'> +8.8202374e+04 </wgt>
<wgt id='1159'> +6.9177125e+04 </wgt>
<wgt id='1160'> +8.0500581e+04 </wgt>
<wgt id='1161'> +7.5287776e+04 </wgt>
<wgt id='1162'> +6.1766477e+04 </wgt>
<wgt id='1163'> +7.2736438e+04 </wgt>
<wgt id='1164'> +7.1444086e+04 </wgt>
<wgt id='1165'> +7.4847814e+04 </wgt>
<wgt id='1166'> +7.0854330e+04 </wgt>
<wgt id='1167'> +6.3069090e+04 </wgt>
<wgt id='1168'> +6.6087805e+04 </wgt>
<wgt id='1169'> +7.0981415e+04 </wgt>
<wgt id='1170'> +5.6924539e+04 </wgt>
<wgt id='1171'> +5.9100721e+04 </wgt>
<wgt id='1172'> +5.5844513e+04 </wgt>
<wgt id='1173'> +5.5271263e+04 </wgt>
<wgt id='1174'> +7.6343571e+04 </wgt>
<wgt id='1175'> +7.3070170e+04 </wgt>
<wgt id='1176'> +7.0702466e+04 </wgt>
<wgt id='1177'> +8.8338968e+04 </wgt>
<wgt id='1178'> +7.2276979e+04 </wgt>
<wgt id='1179'> +7.0484797e+04 </wgt>
<wgt id='1180'> +8.3984464e+04 </wgt>
<wgt id='1181'> +6.1936533e+04 </wgt>
<wgt id='1182'> +7.9014147e+04 </wgt>
<wgt id='1183'> +8.3422426e+04 </wgt>
<wgt id='1184'> +5.6988943e+04 </wgt>
<wgt id='1185'> +7.1052918e+04 </wgt>
<wgt id='1186'> +9.8622346e+04 </wgt>
<wgt id='1187'> +9.6439254e+04 </wgt>
<wgt id='1188'> +7.5806779e+04 </wgt>
<wgt id='1189'> +5.7540065e+04 </wgt>
<wgt id='1190'> +9.2312596e+04 </wgt>
<wgt id='1191'> +6.7510392e+04 </wgt>
<wgt id='1192'> +7.8780622e+04 </wgt>
<wgt id='1193'> +7.1356540e+04 </wgt>
<wgt id='1194'> +8.1619629e+04 </wgt>
<wgt id='1195'> +8.1353354e+04 </wgt>
<wgt id='1196'> +9.8391449e+04 </wgt>
<wgt id='1197'> +8.0287327e+04 </wgt>
<wgt id='1198'> +7.7074927e+04 </wgt>
<wgt id='1199'> +7.5233694e+04 </wgt>
<wgt id='1200'> +7.7950053e+04 </wgt>
<wgt id='1201'> +7.7401403e+04 </wgt>
<wgt id='1202'> +1.0747409e+05 </wgt>
<wgt id='1203'> +7.8554735e+04 </wgt>
<wgt id='1204'> +7.2854243e+04 </wgt>
<wgt id='1205'> +8.6914332e+04 </wgt>
<wgt id='1206'> +7.6209221e+04 </wgt>
<wgt id='1207'> +7.9917554e+04 </wgt>
<wgt id='1208'> +8.7363979e+04 </wgt>
<wgt id='1209'> +7.0574705e+04 </wgt>
<wgt id='1210'> +6.8294685e+04 </wgt>
<wgt id='1211'> +6.4229091e+04 </wgt>
<wgt id='1212'> +7.7957351e+04 </wgt>
<wgt id='1213'> +7.4199551e+04 </wgt>
<wgt id='1214'> +7.3332445e+04 </wgt>
<wgt id='1215'> +3.4306876e+04 </wgt>
<wgt id='1216'> +4.2367280e+04 </wgt>
<wgt id='1217'> +4.9315454e+04 </wgt>
<wgt id='1218'> +5.6042797e+04 </wgt>
<wgt id='1219'> +6.7941807e+04 </wgt>
<wgt id='1220'> +7.7065657e+04 </wgt>
<wgt id='1221'> +9.1758290e+04 </wgt>
<wgt id='1222'> +1.0304164e+05 </wgt>
<wgt id='1223'> +6.2126434e+04 </wgt>
<wgt id='1224'> +6.1841912e+04 </wgt>
<wgt id='1225'> +6.2379961e+04 </wgt>
<wgt id='1226'> +6.1394937e+04 </wgt>
<wgt id='1227'> +5.9755146e+04 </wgt>
<wgt id='1228'> +6.1232892e+04 </wgt>
<wgt id='1229'> +6.1569030e+04 </wgt>
<wgt id='1230'> +6.0622445e+04 </wgt>
<wgt id='1231'> +6.1976549e+04 </wgt>
<wgt id='1232'> +6.0856110e+04 </wgt>
<wgt id='1233'> +6.3673022e+04 </wgt>
<wgt id='1234'> +6.2519991e+04 </wgt>
<wgt id='1235'> +6.2374291e+04 </wgt>
<wgt id='1236'> +6.2147221e+04 </wgt>
<wgt id='1237'> +6.0603986e+04 </wgt>
<wgt id='1238'> +6.2756946e+04 </wgt>
<wgt id='1239'> +6.1698832e+04 </wgt>
<wgt id='1240'> +6.2462759e+04 </wgt>
<wgt id='1241'> +6.2455111e+04 </wgt>
<wgt id='1242'> +6.2929603e+04 </wgt>
<wgt id='1243'> +6.3117184e+04 </wgt>
<wgt id='1244'> +6.1037810e+04 </wgt>
<wgt id='1245'> +6.2138490e+04 </wgt>
<wgt id='1246'> +6.1057340e+04 </wgt>
<wgt id='1247'> +6.1120462e+04 </wgt>
<wgt id='1248'> +6.3277058e+04 </wgt>
<wgt id='1249'> +6.1969483e+04 </wgt>
<wgt id='1250'> +6.3117502e+04 </wgt>
<wgt id='1251'> +6.1003108e+04 </wgt>
<wgt id='1252'> +5.9835049e+04 </wgt>
<wgt id='1253'> +6.5346783e+04 </wgt>
<wgt id='1254'> +6.4024035e+04 </wgt>
<wgt id='1255'> +6.1725100e+04 </wgt>
<wgt id='1256'> +6.1956587e+04 </wgt>
<wgt id='1257'> +6.2934960e+04 </wgt>
<wgt id='1258'> +6.2437966e+04 </wgt>
<wgt id='1259'> +6.2927915e+04 </wgt>
<wgt id='1260'> +6.3003505e+04 </wgt>
<wgt id='1261'> +6.2822235e+04 </wgt>
<wgt id='1262'> +6.2582698e+04 </wgt>
<wgt id='1263'> +6.2474580e+04 </wgt>
<wgt id='1264'> +6.2238350e+04 </wgt>
<wgt id='1265'> +6.2229874e+04 </wgt>
<wgt id='1266'> +6.1119414e+04 </wgt>
<wgt id='1267'> +6.3081451e+04 </wgt>
<wgt id='1268'> +6.1856454e+04 </wgt>
<wgt id='1269'> +6.2604890e+04 </wgt>
<wgt id='1270'> +6.1644170e+04 </wgt>
<wgt id='1271'> +6.1736742e+04 </wgt>
<wgt id='1272'> +6.2002684e+04 </wgt>
<wgt id='1273'> +6.1670548e+04 </wgt>
<wgt id='1274'> +6.1101350e+04 </wgt>
<wgt id='1275'> +6.2293238e+04 </wgt>
<wgt id='1276'> +6.3038697e+04 </wgt>
<wgt id='1277'> +6.2606676e+04 </wgt>
<wgt id='1278'> +6.2271845e+04 </wgt>
<wgt id='1279'> +6.2700126e+04 </wgt>
<wgt id='1280'> +6.2689839e+04 </wgt>
<wgt id='1281'> +6.3280203e+04 </wgt>
<wgt id='1282'> +6.1228438e+04 </wgt>
<wgt id='1283'> +6.1597971e+04 </wgt>
<wgt id='1284'> +6.1710790e+04 </wgt>
<wgt id='1285'> +6.1925001e+04 </wgt>
<wgt id='1286'> +6.1077348e+04 </wgt>
<wgt id='1287'> +6.2853227e+04 </wgt>
<wgt id='1288'> +6.1703908e+04 </wgt>
<wgt id='1289'> +6.1582251e+04 </wgt>
<wgt id='1290'> +6.3201109e+04 </wgt>
<wgt id='1291'> +6.1667069e+04 </wgt>
<wgt id='1292'> +6.3194703e+04 </wgt>
<wgt id='1293'> +6.2562978e+04 </wgt>
<wgt id='1294'> +6.2474612e+04 </wgt>
<wgt id='1295'> +6.1294568e+04 </wgt>
<wgt id='1296'> +6.2779867e+04 </wgt>
<wgt id='1297'> +6.1022314e+04 </wgt>
<wgt id='1298'> +6.2469543e+04 </wgt>
<wgt id='1299'> +6.2015676e+04 </wgt>
<wgt id='1300'> +6.1541190e+04 </wgt>
<wgt id='1301'> +6.1829061e+04 </wgt>
<wgt id='1302'> +6.2743489e+04 </wgt>
<wgt id='1303'> +6.2678484e+04 </wgt>
<wgt id='1304'> +6.1667456e+04 </wgt>
<wgt id='1305'> +6.2675590e+04 </wgt>
<wgt id='1306'> +6.2046802e+04 </wgt>
<wgt id='1307'> +6.2646474e+04 </wgt>
<wgt id='1308'> +6.2177083e+04 </wgt>
<wgt id='1309'> +6.2561289e+04 </wgt>
<wgt id='1310'> +6.1961325e+04 </wgt>
<wgt id='1311'> +6.3090939e+04 </wgt>
<wgt id='1312'> +6.2681517e+04 </wgt>
<wgt id='1313'> +6.2214348e+04 </wgt>
<wgt id='1314'> +6.1345917e+04 </wgt>
<wgt id='1315'> +6.2327311e+04 </wgt>
<wgt id='1316'> +6.2378633e+04 </wgt>
<wgt id='1317'> +6.1256502e+04 </wgt>
<wgt id='1318'> +6.0852395e+04 </wgt>
<wgt id='1319'> +6.3033154e+04 </wgt>
<wgt id='1320'> +6.2686395e+04 </wgt>
<wgt id='1321'> +6.2207234e+04 </wgt>
<wgt id='1322'> +6.1344149e+04 </wgt>
<wgt id='1323'> +6.2122032e+04 </wgt>
<wgt id='1324'> +5.2641064e+04 </wgt>
<wgt id='1325'> +6.8789571e+04 </wgt>
<wgt id='1326'> +9.0548369e+04 </wgt>
<wgt id='1327'> +8.2207286e+04 </wgt>
<wgt id='1328'> +8.3024802e+04 </wgt>
<wgt id='1329'> +8.2739984e+04 </wgt>
<wgt id='1330'> +8.6465283e+04 </wgt>
<wgt id='1331'> +7.9826454e+04 </wgt>
<wgt id='1332'> +8.7336802e+04 </wgt>
<wgt id='1333'> +8.3286814e+04 </wgt>
<wgt id='1334'> +8.3051980e+04 </wgt>
<wgt id='1335'> +9.1809666e+04 </wgt>
<wgt id='1336'> +7.7897986e+04 </wgt>
<wgt id='1337'> +8.7435579e+04 </wgt>
<wgt id='1338'> +8.1581413e+04 </wgt>
<wgt id='1339'> +8.1938777e+04 </wgt>
<wgt id='1340'> +8.7169305e+04 </wgt>
<wgt id='1341'> +9.1828414e+04 </wgt>
<wgt id='1342'> +8.6573647e+04 </wgt>
<wgt id='1343'> +8.3285944e+04 </wgt>
<wgt id='1344'> +8.3930940e+04 </wgt>
<wgt id='1345'> +8.1155293e+04 </wgt>
<wgt id='1346'> +8.9463978e+04 </wgt>
<wgt id='1347'> +8.1908696e+04 </wgt>
<wgt id='1348'> +8.2167119e+04 </wgt>
<wgt id='1349'> +7.8708044e+04 </wgt>
<wgt id='1350'> +8.4809449e+04 </wgt>
<wgt id='1351'> +8.2295262e+04 </wgt>
<wgt id='1352'> +9.0503707e+04 </wgt>
<wgt id='1353'> +8.0464228e+04 </wgt>
<wgt id='1354'> +8.1266127e+04 </wgt>
<wgt id='1355'> +8.1798218e+04 </wgt>
<wgt id='1356'> +7.9459545e+04 </wgt>
<wgt id='1357'> +7.9309648e+04 </wgt>
<wgt id='1358'> +8.1979283e+04 </wgt>
<wgt id='1359'> +8.3293297e+04 </wgt>
<wgt id='1360'> +8.1320640e+04 </wgt>
<wgt id='1361'> +8.4250644e+04 </wgt>
<wgt id='1362'> +8.4671143e+04 </wgt>
<wgt id='1363'> +8.3155044e+04 </wgt>
<wgt id='1364'> +8.1974774e+04 </wgt>
<wgt id='1365'> +8.8656522e+04 </wgt>
<wgt id='1366'> +7.9134590e+04 </wgt>
<wgt id='1367'> +7.9387247e+04 </wgt>
<wgt id='1368'> +8.2050051e+04 </wgt>
<wgt id='1369'> +8.2369386e+04 </wgt>
<wgt id='1370'> +8.4458360e+04 </wgt>
<wgt id='1371'> +8.1609630e+04 </wgt>
<wgt id='1372'> +8.2877205e+04 </wgt>
<wgt id='1373'> +8.9097385e+04 </wgt>
<wgt id='1374'> +7.9216726e+04 </wgt>
<wgt id='1375'> +8.4214590e+04 </wgt>
<wgt id='1376'> +8.0454392e+04 </wgt>
<wgt id='1377'> +8.3446867e+04 </wgt>
<wgt id='1378'> +8.3179251e+04 </wgt>
<wgt id='1379'> +8.7094186e+04 </wgt>
<wgt id='1380'> +8.3788739e+04 </wgt>
<wgt id='1381'> +7.5743158e+04 </wgt>
<wgt id='1382'> +7.8501429e+04 </wgt>
<wgt id='1383'> +8.3990562e+04 </wgt>
<wgt id='1384'> +8.1525281e+04 </wgt>
<wgt id='1385'> +8.2803572e+04 </wgt>
<wgt id='1386'> +8.6791170e+04 </wgt>
<wgt id='1387'> +8.2374537e+04 </wgt>
<wgt id='1388'> +8.1303165e+04 </wgt>
<wgt id='1389'> +8.4547283e+04 </wgt>
<wgt id='1390'> +8.3055136e+04 </wgt>
<wgt id='1391'> +8.3401499e+04 </wgt>
<wgt id='1392'> +8.1527671e+04 </wgt>
<wgt id='1393'> +8.5240385e+04 </wgt>
<wgt id='1394'> +8.8656522e+04 </wgt>
<wgt id='1395'> +8.2973712e+04 </wgt>
<wgt id='1396'> +8.1765338e+04 </wgt>
<wgt id='1397'> +8.1377100e+04 </wgt>
<wgt id='1398'> +8.1789492e+04 </wgt>
<wgt id='1399'> +8.4264047e+04 </wgt>
<wgt id='1400'> +8.2538690e+04 </wgt>
<wgt id='1401'> +8.2233687e+04 </wgt>
<wgt id='1402'> +8.1578579e+04 </wgt>
<wgt id='1403'> +8.1210406e+04 </wgt>
<wgt id='1404'> +7.8816643e+04 </wgt>
<wgt id='1405'> +8.2506712e+04 </wgt>
<wgt id='1406'> +8.1911611e+04 </wgt>
<wgt id='1407'> +8.0931406e+04 </wgt>
<wgt id='1408'> +8.2495437e+04 </wgt>
<wgt id='1409'> +7.9746723e+04 </wgt>
<wgt id='1410'> +8.0313749e+04 </wgt>
<wgt id='1411'> +8.3201195e+04 </wgt>
<wgt id='1412'> +8.3218617e+04 </wgt>
<wgt id='1413'> +8.4147494e+04 </wgt>
<wgt id='1414'> +8.2155159e+04 </wgt>
<wgt id='1415'> +8.2646336e+04 </wgt>
<wgt id='1416'> +8.5868623e+04 </wgt>
<wgt id='1417'> +8.1235328e+04 </wgt>
<wgt id='1418'> +7.7318251e+04 </wgt>
<wgt id='1419'> +8.4745120e+04 </wgt>
<wgt id='1420'> +7.9127103e+04 </wgt>
<wgt id='1421'> +8.4409476e+04 </wgt>
<wgt id='1422'> +8.4559555e+04 </wgt>
<wgt id='1423'> +8.8273585e+04 </wgt>
<wgt id='1424'> +8.0025570e+04 </wgt>
<wgt id='1425'> +8.4047596e+04 </wgt>
<wgt id='1426'> +8.1582387e+04 </wgt>
<wgt id='1427'> +8.2777442e+04 </wgt>
<wgt id='1428'> +8.5899417e+04 </wgt>
<wgt id='1429'> +8.0447774e+04 </wgt>
<wgt id='1430'> +8.6386345e+04 </wgt>
<wgt id='1431'> +8.3391302e+04 </wgt>
<wgt id='1432'> +8.3603984e+04 </wgt>
<wgt id='1433'> +8.3489272e+04 </wgt>
<wgt id='1434'> +8.3403019e+04 </wgt>
<wgt id='1435'> +8.3002331e+04 </wgt>
<wgt id='1436'> +8.4006878e+04 </wgt>
<wgt id='1437'> +8.3766989e+04 </wgt>
<wgt id='1438'> +8.3133209e+04 </wgt>
<wgt id='1439'> +8.3539578e+04 </wgt>
<wgt id='1440'> +8.3225091e+04 </wgt>
<wgt id='1441'> +8.3172420e+04 </wgt>
<wgt id='1442'> +8.3062294e+04 </wgt>
<wgt id='1443'> +8.3449514e+04 </wgt>
<wgt id='1444'> +8.3769275e+04 </wgt>
<wgt id='1445'> +8.3561474e+04 </wgt>
<wgt id='1446'> +8.3651651e+04 </wgt>
<wgt id='1447'> +8.3117318e+04 </wgt>
<wgt id='1448'> +8.3256201e+04 </wgt>
<wgt id='1449'> +8.3455195e+04 </wgt>
<wgt id='1450'> +8.4608550e+04 </wgt>
<wgt id='1451'> +8.3835458e+04 </wgt>
<wgt id='1452'> +8.3384805e+04 </wgt>
<wgt id='1453'> +8.4436540e+04 </wgt>
<wgt id='1454'> +8.2780772e+04 </wgt>
<wgt id='1455'> +8.3540010e+04 </wgt>
<wgt id='1456'> +8.4267531e+04 </wgt>
<wgt id='1457'> +8.3253635e+04 </wgt>
<wgt id='1458'> +8.4209254e+04 </wgt>
<wgt id='1459'> +8.3466355e+04 </wgt>
<wgt id='1460'> +8.2945554e+04 </wgt>
<wgt id='1461'> +8.3246764e+04 </wgt>
<wgt id='1462'> +8.3891667e+04 </wgt>
<wgt id='1463'> +8.4016627e+04 </wgt>
<wgt id='1464'> +8.3902872e+04 </wgt>
<wgt id='1465'> +8.2831220e+04 </wgt>
<wgt id='1466'> +8.3561797e+04 </wgt>
<wgt id='1467'> +8.3167169e+04 </wgt>
<wgt id='1468'> +8.3672042e+04 </wgt>
<wgt id='1469'> +8.3437647e+04 </wgt>
<wgt id='1470'> +8.3275259e+04 </wgt>
<wgt id='1471'> +8.3088078e+04 </wgt>
<wgt id='1472'> +8.2994385e+04 </wgt>
<wgt id='1473'> +8.3149522e+04 </wgt>
<wgt id='1474'> +8.3464525e+04 </wgt>
<wgt id='1475'> +8.3975211e+04 </wgt>
<wgt id='1476'> +8.3388631e+04 </wgt>
<wgt id='1477'> +8.3272763e+04 </wgt>
<wgt id='1478'> +8.3028990e+04 </wgt>
<wgt id='1479'> +8.3423603e+04 </wgt>
<wgt id='1480'> +8.3151343e+04 </wgt>
<wgt id='1481'> +8.3751103e+04 </wgt>
<wgt id='1482'> +8.0447774e+04 </wgt>
<wgt id='1483'> +8.6386345e+04 </wgt>
<wgt id='1484'> +8.3345386e+04 </wgt>
<wgt id='1485'> +8.3155793e+04 </wgt>
<wgt id='1486'> +8.1250061e+04 </wgt>
<wgt id='1487'> +8.2970613e+04 </wgt>
<wgt id='1488'> +8.4767145e+04 </wgt>
<wgt id='1489'> +8.4163065e+04 </wgt>
<wgt id='1490'> +8.3019346e+04 </wgt>
<wgt id='1491'> +8.4410080e+04 </wgt>
<wgt id='1492'> +8.2757246e+04 </wgt>
<wgt id='1493'> +8.4469131e+04 </wgt>
<wgt id='1494'> +8.4460441e+04 </wgt>
<wgt id='1495'> +8.4468831e+04 </wgt>
<wgt id='1496'> +8.3476693e+04 </wgt>
<wgt id='1497'> +8.6246508e+04 </wgt>
<wgt id='1498'> +8.3240441e+04 </wgt>
<wgt id='1499'> +8.2986738e+04 </wgt>
<wgt id='1500'> +8.2952092e+04 </wgt>
<wgt id='1501'> +8.2860118e+04 </wgt>
<wgt id='1502'> +8.2135999e+04 </wgt>
<wgt id='1503'> +8.2511212e+04 </wgt>
<wgt id='1504'> +8.3419818e+04 </wgt>
<wgt id='1505'> +8.2427562e+04 </wgt>
<wgt id='1506'> +8.3135730e+04 </wgt>
<wgt id='1507'> +8.3392542e+04 </wgt>
<wgt id='1508'> +8.3475345e+04 </wgt>
<wgt id='1509'> +8.2822488e+04 </wgt>
<wgt id='1510'> +8.2533531e+04 </wgt>
<wgt id='1511'> +8.2036123e+04 </wgt>
<wgt id='1512'> +8.2582423e+04 </wgt>
<wgt id='1513'> +8.3040742e+04 </wgt>
<wgt id='1514'> +8.2134119e+04 </wgt>
<wgt id='1515'> +8.3537747e+04 </wgt>
<wgt id='1516'> +8.3122249e+04 </wgt>
<wgt id='1517'> +8.3054527e+04 </wgt>
<wgt id='1518'> +8.4982306e+04 </wgt>
<wgt id='1519'> +8.4689282e+04 </wgt>
<wgt id='1520'> +8.2079775e+04 </wgt>
<wgt id='1521'> +8.2923087e+04 </wgt>
<wgt id='1522'> +8.3365784e+04 </wgt>
<wgt id='1523'> +8.2577495e+04 </wgt>
<wgt id='1524'> +8.3275387e+04 </wgt>
<wgt id='1525'> +8.2916515e+04 </wgt>
<wgt id='1526'> +8.2184096e+04 </wgt>
<wgt id='1527'> +8.4396720e+04 </wgt>
<wgt id='1528'> +8.2928248e+04 </wgt>
<wgt id='1529'> +8.3743011e+04 </wgt>
<wgt id='1530'> +8.3745594e+04 </wgt>
<wgt id='1531'> +8.2457862e+04 </wgt>
<wgt id='1532'> +8.4648488e+04 </wgt>
<wgt id='1533'> +8.4792484e+04 </wgt>
<wgt id='1534'> +8.3820503e+04 </wgt>
<wgt id='1535'> +8.3263879e+04 </wgt>
<wgt id='1536'> +8.2950599e+04 </wgt>
<wgt id='1537'> +8.1390153e+04 </wgt>
<wgt id='1538'> +8.4210440e+04 </wgt>
<wgt id='1539'> +8.3693165e+04 </wgt>
<wgt id='1540'> +8.4654903e+04 </wgt>
<wgt id='1541'> +8.5040910e+04 </wgt>
<wgt id='1542'> +8.4459183e+04 </wgt>
<wgt id='1543'> +8.3322035e+04 </wgt>
<wgt id='1544'> +8.3864541e+04 </wgt>
<wgt id='1545'> +8.1620381e+04 </wgt>
<wgt id='1546'> +8.4555566e+04 </wgt>
<wgt id='1547'> +8.2797717e+04 </wgt>
<wgt id='1548'> +8.3141781e+04 </wgt>
<wgt id='1549'> +8.6187471e+04 </wgt>
<wgt id='1550'> +8.4691618e+04 </wgt>
<wgt id='1551'> +8.4150680e+04 </wgt>
<wgt id='1552'> +8.2974653e+04 </wgt>
<wgt id='1553'> +8.3838506e+04 </wgt>
<wgt id='1554'> +8.1444866e+04 </wgt>
<wgt id='1555'> +8.2873071e+04 </wgt>
<wgt id='1556'> +8.1117999e+04 </wgt>
<wgt id='1557'> +8.4483360e+04 </wgt>
<wgt id='1558'> +8.2810853e+04 </wgt>
<wgt id='1559'> +8.3964979e+04 </wgt>
<wgt id='1560'> +8.1076225e+04 </wgt>
<wgt id='1561'> +8.3706855e+04 </wgt>
<wgt id='1562'> +8.5880110e+04 </wgt>
<wgt id='1563'> +8.1971149e+04 </wgt>
<wgt id='1564'> +8.3362393e+04 </wgt>
<wgt id='1565'> +8.3605703e+04 </wgt>
<wgt id='1566'> +8.6222689e+04 </wgt>
<wgt id='1567'> +8.5538589e+04 </wgt>
<wgt id='1568'> +8.2908437e+04 </wgt>
<wgt id='1569'> +8.3050843e+04 </wgt>
<wgt id='1570'> +8.1981217e+04 </wgt>
<wgt id='1571'> +8.3871095e+04 </wgt>
<wgt id='1572'> +8.2349715e+04 </wgt>
<wgt id='1573'> +8.3276131e+04 </wgt>
<wgt id='1574'> +8.6430919e+04 </wgt>
<wgt id='1575'> +8.1186913e+04 </wgt>
<wgt id='1576'> +8.2735895e+04 </wgt>
<wgt id='1577'> +8.2880654e+04 </wgt>
<wgt id='1578'> +7.9525689e+04 </wgt>
<wgt id='1579'> +8.4333940e+04 </wgt>
<wgt id='1580'> +8.3027666e+04 </wgt>
<wgt id='1581'> +8.3258989e+04 </wgt>
<wgt id='1582'> +8.2628765e+04 </wgt>
<wgt id='1583'> +8.1467471e+04 </wgt>
<wgt id='1584'> +8.4240006e+04 </wgt>
<wgt id='1585'> +7.1332673e+04 </wgt>
<wgt id='1586'> +5.3352768e+04 </wgt>
<wgt id='1587'> +7.8224545e+04 </wgt>
<wgt id='1588'> +8.0447774e+04 </wgt>
<wgt id='1589'> +8.2183819e+04 </wgt>
<wgt id='1590'> +8.4595653e+04 </wgt>
<wgt id='1591'> +8.6386345e+04 </wgt>
<wgt id='1592'> +8.8783283e+04 </wgt>
<wgt id='1593'> +9.0709953e+04 </wgt>
<wgt id='1594'> +8.9648242e+04 </wgt>
<wgt id='1595'> +9.1444945e+04 </wgt>
<wgt id='1596'> +9.4532216e+04 </wgt>
<wgt id='1597'> +8.7797193e+04 </wgt>
<wgt id='1598'> +9.7354408e+04 </wgt>
<wgt id='1599'> +8.7404535e+04 </wgt>
<wgt id='1600'> +9.5193629e+04 </wgt>
<wgt id='1601'> +8.7244958e+04 </wgt>
<wgt id='1602'> +9.0830254e+04 </wgt>
<wgt id='1603'> +9.0606147e+04 </wgt>
<wgt id='1604'> +9.0004253e+04 </wgt>
<wgt id='1605'> +9.2880751e+04 </wgt>
<wgt id='1606'> +9.1093666e+04 </wgt>
<wgt id='1607'> +9.0139710e+04 </wgt>
<wgt id='1608'> +9.4874414e+04 </wgt>
<wgt id='1609'> +8.8540788e+04 </wgt>
<wgt id='1610'> +9.1249603e+04 </wgt>
<wgt id='1611'> +9.0150877e+04 </wgt>
<wgt id='1612'> +9.0368863e+04 </wgt>
<wgt id='1613'> +9.0967058e+04 </wgt>
<wgt id='1614'> +8.9701499e+04 </wgt>
<wgt id='1615'> +9.2676497e+04 </wgt>
<wgt id='1616'> +9.3622356e+04 </wgt>
<wgt id='1617'> +8.7794575e+04 </wgt>
<wgt id='1618'> +9.0200264e+04 </wgt>
<wgt id='1619'> +9.2533911e+04 </wgt>
<wgt id='1620'> +8.8049812e+04 </wgt>
<wgt id='1621'> +9.5090229e+04 </wgt>
<wgt id='1622'> +9.0521849e+04 </wgt>
<wgt id='1623'> +9.0197427e+04 </wgt>
<wgt id='1624'> +8.9412787e+04 </wgt>
<wgt id='1625'> +9.3373422e+04 </wgt>
<wgt id='1626'> +9.1877167e+04 </wgt>
<wgt id='1627'> +8.8692138e+04 </wgt>
<wgt id='1628'> +8.7015707e+04 </wgt>
<wgt id='1629'> +9.6402799e+04 </wgt>
<wgt id='1630'> +8.9592847e+04 </wgt>
<wgt id='1631'> +9.3207218e+04 </wgt>
<wgt id='1632'> +8.8392877e+04 </wgt>
<wgt id='1633'> +9.5464570e+04 </wgt>
<wgt id='1634'> +9.1903127e+04 </wgt>
<wgt id='1635'> +8.9679889e+04 </wgt>
<wgt id='1636'> +9.8759750e+04 </wgt>
<wgt id='1637'> +8.5944243e+04 </wgt>
<wgt id='1638'> +8.7297087e+04 </wgt>
<wgt id='1639'> +9.3498703e+04 </wgt>
<wgt id='1640'> +8.8718003e+04 </wgt>
<wgt id='1641'> +9.3107770e+04 </wgt>
<wgt id='1642'> +9.7815342e+04 </wgt>
<wgt id='1643'> +8.6507059e+04 </wgt>
<wgt id='1644'> +8.8071031e+04 </wgt>
<wgt id='1645'> +9.4818072e+04 </wgt>
<wgt id='1646'> +9.5929149e+04 </wgt>
<wgt id='1647'> +8.7620904e+04 </wgt>
<wgt id='1648'> +9.1387409e+04 </wgt>
<wgt id='1649'> +9.0489329e+04 </wgt>
<wgt id='1650'> +9.1412343e+04 </wgt>
<wgt id='1651'> +8.9372690e+04 </wgt>
<wgt id='1652'> +8.4563062e+04 </wgt>
<wgt id='1653'> +8.7612749e+04 </wgt>
<wgt id='1654'> +9.3840642e+04 </wgt>
<wgt id='1655'> +9.7022509e+04 </wgt>
<wgt id='1656'> +9.2254265e+04 </wgt>
<wgt id='1657'> +9.2187715e+04 </wgt>
<wgt id='1658'> +9.1777915e+04 </wgt>
<wgt id='1659'> +9.2505779e+04 </wgt>
<wgt id='1660'> +9.1973528e+04 </wgt>
<wgt id='1661'> +9.2485451e+04 </wgt>
<wgt id='1662'> +9.1606212e+04 </wgt>
<wgt id='1663'> +9.3467374e+04 </wgt>
<wgt id='1664'> +9.0460005e+04 </wgt>
<wgt id='1665'> +9.0834413e+04 </wgt>
<wgt id='1666'> +9.2796414e+04 </wgt>
<wgt id='1667'> +9.4157999e+04 </wgt>
<wgt id='1668'> +9.0955384e+04 </wgt>
<wgt id='1669'> +9.3966881e+04 </wgt>
<wgt id='1670'> +9.0451267e+04 </wgt>
<wgt id='1671'> +9.1209869e+04 </wgt>
<wgt id='1672'> +9.4466352e+04 </wgt>
<wgt id='1673'> +9.1250771e+04 </wgt>
<wgt id='1674'> +9.3126708e+04 </wgt>
<wgt id='1675'> +9.0271317e+04 </wgt>
<wgt id='1676'> +9.4402051e+04 </wgt>
<wgt id='1677'> +9.4218255e+04 </wgt>
<wgt id='1678'> +9.0899492e+04 </wgt>
<wgt id='1679'> +8.9101422e+04 </wgt>
<wgt id='1680'> +9.5775725e+04 </wgt>
<wgt id='1681'> +9.2228631e+04 </wgt>
<wgt id='1682'> +9.2122581e+04 </wgt>
<wgt id='1683'> +9.0893617e+04 </wgt>
<wgt id='1684'> +9.3759705e+04 </wgt>
<wgt id='1685'> +8.8928829e+04 </wgt>
<wgt id='1686'> +9.5527361e+04 </wgt>
<wgt id='1687'> +9.0711810e+04 </wgt>
<wgt id='1688'> +9.4302954e+04 </wgt>
<wgt id='1689'> +9.0657408e+04 </wgt>
<wgt id='1690'> +9.3722691e+04 </wgt>
<wgt id='1691'> +9.0345403e+04 </wgt>
<wgt id='1692'> +9.4532084e+04 </wgt>
<wgt id='1693'> +8.8687477e+04 </wgt>
<wgt id='1694'> +9.8032877e+04 </wgt>
<wgt id='1695'> +9.1538110e+04 </wgt>
<wgt id='1696'> +9.2016944e+04 </wgt>
<wgt id='1697'> +9.0956157e+04 </wgt>
<wgt id='1698'> +9.4030826e+04 </wgt>
<wgt id='1699'> +9.5157091e+04 </wgt>
<wgt id='1700'> +8.8525990e+04 </wgt>
<wgt id='1701'> +9.7129012e+04 </wgt>
<wgt id='1702'> +8.8692868e+04 </wgt>
<wgt id='1703'> +9.4103230e+04 </wgt>
<wgt id='1704'> +9.0927864e+04 </wgt>
<wgt id='1705'> +9.0462211e+04 </wgt>
<wgt id='1706'> +9.4873057e+04 </wgt>
<wgt id='1707'> +9.1932507e+04 </wgt>
<wgt id='1708'> +9.2586833e+04 </wgt>
<wgt id='1709'> +9.5840788e+04 </wgt>
<wgt id='1710'> +8.9371899e+04 </wgt>
<wgt id='1711'> +9.6098250e+04 </wgt>
<wgt id='1712'> +8.9638954e+04 </wgt>
<wgt id='1713'> +9.1985790e+04 </wgt>
<wgt id='1714'> +9.1276617e+04 </wgt>
<wgt id='1715'> +9.3348314e+04 </wgt>
<wgt id='1716'> +9.3034066e+04 </wgt>
<wgt id='1717'> +8.9610224e+04 </wgt>
<wgt id='1718'> +8.9506846e+04 </wgt>
<wgt id='1719'> +8.9742448e+04 </wgt>
<wgt id='1720'> +8.9583661e+04 </wgt>
<wgt id='1721'> +8.9634475e+04 </wgt>
<wgt id='1722'> +9.0076899e+04 </wgt>
<wgt id='1723'> +8.8846265e+04 </wgt>
<wgt id='1724'> +9.0296487e+04 </wgt>
<wgt id='1725'> +8.9053277e+04 </wgt>
<wgt id='1726'> +9.0136020e+04 </wgt>
<wgt id='1727'> +8.9068751e+04 </wgt>
<wgt id='1728'> +9.2032372e+04 </wgt>
<wgt id='1729'> +8.7270338e+04 </wgt>
<wgt id='1730'> +8.7567202e+04 </wgt>
<wgt id='1731'> +9.1063234e+04 </wgt>
<wgt id='1732'> +8.8398435e+04 </wgt>
<wgt id='1733'> +8.8398435e+04 </wgt>
<wgt id='1734'> +9.0887821e+04 </wgt>
<wgt id='1735'> +8.8752829e+04 </wgt>
<wgt id='1736'> +9.0613872e+04 </wgt>
<wgt id='1737'> +8.8224432e+04 </wgt>
<wgt id='1738'> +8.7627440e+04 </wgt>
<wgt id='1739'> +9.3068847e+04 </wgt>
<wgt id='1740'> +8.9790635e+04 </wgt>
<wgt id='1741'> +8.9191890e+04 </wgt>
<wgt id='1742'> +9.0090932e+04 </wgt>
<wgt id='1743'> +8.9111847e+04 </wgt>
<wgt id='1744'> +8.9879728e+04 </wgt>
<wgt id='1745'> +8.8884229e+04 </wgt>
<wgt id='1746'> +8.8155326e+04 </wgt>
<wgt id='1747'> +9.0488873e+04 </wgt>
<wgt id='1748'> +8.9557432e+04 </wgt>
<wgt id='1749'> +8.9768631e+04 </wgt>
<wgt id='1750'> +8.9075542e+04 </wgt>
<wgt id='1751'> +9.0188282e+04 </wgt>
<wgt id='1752'> +9.0191283e+04 </wgt>
<wgt id='1753'> +8.8824521e+04 </wgt>
<wgt id='1754'> +8.8962219e+04 </wgt>
<wgt id='1755'> +8.9976682e+04 </wgt>
<wgt id='1756'> +8.8751772e+04 </wgt>
<wgt id='1757'> +9.1870111e+04 </wgt>
<wgt id='1758'> +8.7910575e+04 </wgt>
<wgt id='1759'> +9.1045036e+04 </wgt>
<wgt id='1760'> +9.0138617e+04 </wgt>
<wgt id='1761'> +8.9307200e+04 </wgt>
<wgt id='1762'> +8.8701171e+04 </wgt>
<wgt id='1763'> +9.2321246e+04 </wgt>
<wgt id='1764'> +8.9760453e+04 </wgt>
<wgt id='1765'> +8.8960913e+04 </wgt>
<wgt id='1766'> +8.9654990e+04 </wgt>
<wgt id='1767'> +8.9782773e+04 </wgt>
<wgt id='1768'> +8.9278917e+04 </wgt>
<wgt id='1769'> +9.0002045e+04 </wgt>
<wgt id='1770'> +9.0602378e+04 </wgt>
<wgt id='1771'> +8.9381585e+04 </wgt>
<wgt id='1772'> +8.9258315e+04 </wgt>
<wgt id='1773'> +9.0653841e+04 </wgt>
<wgt id='1774'> +9.0297159e+04 </wgt>
<wgt id='1775'> +8.9127122e+04 </wgt>
<wgt id='1776'> +8.9616542e+04 </wgt>
<wgt id='1777'> +8.9659154e+04 </wgt>
<wgt id='1778'> +8.9009326e+04 </wgt>
<wgt id='1779'> +9.0384232e+04 </wgt>
<wgt id='1780'> +8.8638563e+04 </wgt>
<wgt id='1781'> +9.0108306e+04 </wgt>
<wgt id='1782'> +8.9610224e+04 </wgt>
<wgt id='1783'> +8.9596347e+04 </wgt>
<wgt id='1784'> +8.7139246e+04 </wgt>
<wgt id='1785'> +8.6406923e+04 </wgt>
<wgt id='1786'> +9.0461085e+04 </wgt>
<wgt id='1787'> +8.7189335e+04 </wgt>
<wgt id='1788'> +8.9769067e+04 </wgt>
<wgt id='1789'> +8.6321979e+04 </wgt>
<wgt id='1790'> +8.7256856e+04 </wgt>
<wgt id='1791'> +8.6352851e+04 </wgt>
<wgt id='1792'> +8.9283395e+04 </wgt>
<wgt id='1793'> +8.5747786e+04 </wgt>
<wgt id='1794'> +8.7283571e+04 </wgt>
<wgt id='1795'> +8.9309844e+04 </wgt>
<wgt id='1796'> +8.7364554e+04 </wgt>
<wgt id='1797'> +9.1709281e+04 </wgt>
<wgt id='1798'> +8.6653198e+04 </wgt>
<wgt id='1799'> +8.7179058e+04 </wgt>
<wgt id='1800'> +8.6898447e+04 </wgt>
<wgt id='1801'> +8.5279405e+04 </wgt>
<wgt id='1802'> +8.4951218e+04 </wgt>
<wgt id='1803'> +8.7077725e+04 </wgt>
<wgt id='1804'> +8.6804158e+04 </wgt>
<wgt id='1805'> +8.6786345e+04 </wgt>
<wgt id='1806'> +8.6885823e+04 </wgt>
<wgt id='1807'> +8.6812139e+04 </wgt>
<wgt id='1808'> +8.6985356e+04 </wgt>
<wgt id='1809'> +8.8856089e+04 </wgt>
<wgt id='1810'> +8.6460948e+04 </wgt>
<wgt id='1811'> +8.7726135e+04 </wgt>
<wgt id='1812'> +8.6343552e+04 </wgt>
<wgt id='1813'> +8.6372409e+04 </wgt>
<wgt id='1814'> +8.5680049e+04 </wgt>
<wgt id='1815'> +8.7205243e+04 </wgt>
<wgt id='1816'> +8.6852356e+04 </wgt>
<wgt id='1817'> +8.6001650e+04 </wgt>
<wgt id='1818'> +8.7346521e+04 </wgt>
<wgt id='1819'> +8.7070340e+04 </wgt>
<wgt id='1820'> +8.6428482e+04 </wgt>
<wgt id='1821'> +8.7150068e+04 </wgt>
<wgt id='1822'> +8.6376397e+04 </wgt>
<wgt id='1823'> +8.6948210e+04 </wgt>
<wgt id='1824'> +8.5310640e+04 </wgt>
<wgt id='1825'> +8.3048595e+04 </wgt>
<wgt id='1826'> +9.0710596e+04 </wgt>
<wgt id='1827'> +8.7155327e+04 </wgt>
<wgt id='1828'> +8.7139823e+04 </wgt>
<wgt id='1829'> +8.7139646e+04 </wgt>
<wgt id='1830'> +8.7308704e+04 </wgt>
<wgt id='1831'> +8.6970347e+04 </wgt>
<wgt id='1832'> +8.7341036e+04 </wgt>
<wgt id='1833'> +8.6938941e+04 </wgt>
<wgt id='1834'> +8.7502445e+04 </wgt>
<wgt id='1835'> +8.6772568e+04 </wgt>
<wgt id='1836'> +8.6712605e+04 </wgt>
<wgt id='1837'> +8.7561904e+04 </wgt>
<wgt id='1838'> +8.7623154e+04 </wgt>
<wgt id='1839'> +8.6661043e+04 </wgt>
<wgt id='1840'> +8.6974213e+04 </wgt>
<wgt id='1841'> +8.7312155e+04 </wgt>
<wgt id='1842'> +8.7468709e+04 </wgt>
<wgt id='1843'> +8.7016882e+04 </wgt>
<wgt id='1844'> +8.7029544e+04 </wgt>
<wgt id='1845'> +8.7237832e+04 </wgt>
<wgt id='1846'> +8.7353909e+04 </wgt>
<wgt id='1847'> +8.6929186e+04 </wgt>
<wgt id='1848'> +8.7916899e+04 </wgt>
<wgt id='1849'> +8.6254813e+04 </wgt>
<wgt id='1850'> +8.5985032e+04 </wgt>
<wgt id='1851'> +8.8282085e+04 </wgt>
<wgt id='1852'> +8.5252495e+04 </wgt>
<wgt id='1853'> +8.8751736e+04 </wgt>
<wgt id='1854'> +8.6457295e+04 </wgt>
<wgt id='1855'> +8.7982128e+04 </wgt>
<wgt id='1856'> +9.6835260e+04 </wgt>
<wgt id='1857'> +9.6799921e+04 </wgt>
<wgt id='1858'> +9.6850156e+04 </wgt>
<wgt id='1859'> +9.6768328e+04 </wgt>
<wgt id='1860'> +9.6838137e+04 </wgt>
<wgt id='1861'> +9.7022241e+04 </wgt>
<wgt id='1862'> +9.7311042e+04 </wgt>
<wgt id='1863'> +9.6460374e+04 </wgt>
<wgt id='1864'> +9.7183942e+04 </wgt>
<wgt id='1865'> +9.7350061e+04 </wgt>
<wgt id='1866'> +9.7080231e+04 </wgt>
<wgt id='1867'> +9.7022401e+04 </wgt>
<wgt id='1868'> +9.7747106e+04 </wgt>
<wgt id='1869'> +9.6204150e+04 </wgt>
<wgt id='1870'> +9.7852275e+04 </wgt>
<wgt id='1871'> +9.6648502e+04 </wgt>
<wgt id='1872'> +9.7436695e+04 </wgt>
<wgt id='1873'> +9.6935161e+04 </wgt>
<wgt id='1874'> +9.7150387e+04 </wgt>
<wgt id='1875'> +9.6422504e+04 </wgt>
<wgt id='1876'> +9.7092584e+04 </wgt>
<wgt id='1877'> +9.8022295e+04 </wgt>
<wgt id='1878'> +9.7299017e+04 </wgt>
<wgt id='1879'> +9.6780158e+04 </wgt>
<wgt id='1880'> +9.6453122e+04 </wgt>
<wgt id='1881'> +9.7111213e+04 </wgt>
<wgt id='1882'> +9.6729279e+04 </wgt>
<wgt id='1883'> +9.6735148e+04 </wgt>
<wgt id='1884'> +9.7255065e+04 </wgt>
<wgt id='1885'> +9.7364986e+04 </wgt>
<wgt id='1886'> +4.1076343e+04 </wgt>
<wgt id='1887'> +6.6408486e+04 </wgt>
<wgt id='1888'> +7.1097500e+04 </wgt>
<wgt id='1889'> +8.9151556e+04 </wgt>
</rwgt>
</event>
<event npLO=" -1 " npNLO=" 0 ">
 6      1 +7.4519530e+04 3.00000000e+01 7.55820760e-03 1.19041800e-01
       21 -1    0    0  501  502 +0.0000000000e+00 +0.0000000000e+00 +2.9110227935e+01 2.9110227935e+01 0.0000000000e+00 0.0000e+00 -1.0000e+00
       -2 -1    0    0    0  501 +0.0000000000e+00 +0.0000000000e+00 -1.1551426335e+02 1.1551426335e+02 0.0000000000e+00 0.0000e+00 1.0000e+00
      -24  2    1    2    0    0 -2.0390842710e+01 +1.9893471597e+01 -7.4182058692e+01 1.1362588819e+02 8.1217781042e+01 0.0000e+00 0.0000e+00
       13  1    3    3    0    0 -1.2791412174e+01 -1.3873576760e+01 +1.0886555345e+01 2.1785624728e+01 0.0000000000e+00 0.0000e+00 -1.0000e+00
      -14  1    3    3    0    0 -7.5994305363e+00 +3.3767048357e+01 -8.5068614037e+01 9.1840263466e+01 0.0000000000e+00 0.0000e+00 1.0000e+00
       -1  1    1    2    0  502 +2.0390842710e+01 -1.9893471597e+01 -1.2221976724e+01 3.0998603092e+01 0.0000000000e+00 0.0000e+00 1.0000e+00
#aMCatNLO 2  0  0  1  1 0.35809043E+02 0.00000000E+00 -9  5  0 0.00000000E+00 0.00000000E+00 0.00000000E+00 0.00000000E+00 0.00000000E+00
<rwgt>
<wgt id='1001'> +7.4519530e+04 </wgt>
<wgt id='1002'> +6.7411186e+04 </wgt>
<wgt id='1003'> +8.3355322e+04 </wgt>
<wgt id='1004'> +8.0880936e+04 </wgt>
<wgt id='1005'> +7.3165783e+04 </wgt>
<wgt id='1006'> +9.0471000e+04 </wgt>
<wgt id='1007'> +6.6864112e+04 </wgt>
<wgt id='1008'> +6.0486010e+04 </wgt>
<wgt id='1009'> +7.4792199e+04 </wgt>
<wgt id='1010'> +7.4519530e+04 </wgt>
<wgt id='1011'> +7.4513591e+04 </wgt>
<wgt id='1012'> +7.4345919e+04 </wgt>
<wgt id='1013'> +7.4418560e+04 </wgt>
<wgt id='1014'> +7.4695984e+04 </wgt>
<wgt id='1015'> +7.4351900e+04 </wgt>
<wgt id='1016'> +7.4459370e+04 </wgt>
<wgt id='1017'> +7.4637747e+04 </wgt>
<wgt id='1018'> +7.4348445e+04 </wgt>
<wgt id='1019'> +7.4934699e+04 </wgt>
<wgt id='1020'> +7.4261698e+04 </wgt>
<wgt id='1021'> +7.4539631e+04 </wgt>
<wgt id='1022'> +7.4459274e+04 </wgt>
<wgt id='1023'> +7.4595823e+04 </wgt>
<wgt id='1024'> +7.4419452e+04 </wgt>
<wgt id='1025'> +7.5253570e+04 </wgt>
<wgt id='1026'> +7.4078231e+04 </wgt>
<wgt id='1027'> +7.4186723e+04 </wgt>
<wgt id='1028'> +7.4226457e+04 </wgt>
<wgt id='1029'> +7.4743300e+04 </wgt>
<wgt id='1030'> +7.4389938e+04 </wgt>
<wgt id='1031'> +7.4307152e+04 </wgt>
<wgt id='1032'> +7.4864471e+04 </wgt>
<wgt id='1033'> +7.4198061e+04 </wgt>
<wgt id='1034'> +7.3931641e+04 </wgt>
<wgt id='1035'> +7.4399145e+04 </wgt>
<wgt id='1036'> +7.4368299e+04 </wgt>
<wgt id='1037'> +7.4776152e+04 </wgt>
<wgt id='1038'> +7.4785417e+04 </wgt>
<wgt id='1039'> +7.4698655e+04 </wgt>
<wgt id='1040'> +7.4660926e+04 </wgt>
<wgt id='1041'> +7.5008295e+04 </wgt>
<wgt id='1042'> +7.4364378e+04 </wgt>
<wgt id='1043'> +7.4466026e+04 </wgt>
<wgt id='1044'> +7.4576668e+04 </wgt>
<wgt id='1045'> +7.4442809e+04 </wgt>
<wgt id='1046'> +7.4293461e+04 </wgt>
<wgt id='1047'> +7.4860065e+04 </wgt>
<wgt id='1048'> +7.4652221e+04 </wgt>
<wgt id='1049'> +7.4558775e+04 </wgt>
<wgt id='1050'> +7.4582839e+04 </wgt>
<wgt id='1051'> +7.4530443e+04 </wgt>
<wgt id='1052'> +7.4397264e+04 </wgt>
<wgt id='1053'> +7.4643800e+04 </wgt>
<wgt id='1054'> +7.4693213e+04 </wgt>
<wgt id='1055'> +7.4546495e+04 </wgt>
<wgt id='1056'> +7.4429239e+04 </wgt>
<wgt id='1057'> +7.4488677e+04 </wgt>
<wgt id='1058'> +7.4625882e+04 </wgt>
<wgt id='1059'> +7.4257980e+04 </wgt>
<wgt id='1060'> +7.4512943e+04 </wgt>
<wgt id='1061'> +7.4514026e+04 </wgt>
<wgt id='1062'> +7.4571012e+04 </wgt>
<wgt id='1063'> +7.4356032e+04 </wgt>
<wgt id='1064'> +7.4515680e+04 </wgt>
<wgt id='1065'> +7.4548633e+04 </wgt>
<wgt id='1066'> +7.4652683e+04 </wgt>
<wgt id='1067'> +7.4743066e+04 </wgt>
<wgt id='1068'> +7.4474998e+04 </wgt>
<wgt id='1069'> +7.4628755e+04 </wgt>
<wgt id='1070'> +7.4559032e+04 </wgt>
<wgt id='1071'> +7.4500678e+04 </wgt>
<wgt id='1072'> +7.4475595e+04 </wgt>
<wgt id='1073'> +7.4597600e+04 </wgt>
<wgt id='1074'> +7.4618291e+04 </wgt>
<wgt id='1075'> +7.4523350e+04 </wgt>
<wgt id='1076'> +7.4648311e+04 </wgt>
<wgt id='1077'> +7.4540661e+04 </wgt>
<wgt id='1078'> +7.4498606e+04 </wgt>
<wgt id='1079'> +7.4520042e+04 </wgt>
<wgt id='1080'> +7.4495439e+04 </wgt>
<wgt id='1081'> +7.4587497e+04 </wgt>
<wgt id='1082'> +7.4504199e+04 </wgt>
<wgt id='1083'> +7.4614417e+04 </wgt>
<wgt id='1084'> +7.4590098e+04 </wgt>
<wgt id='1085'> +7.4565886e+04 </wgt>
<wgt id='1086'> +7.4422127e+04 </wgt>
<wgt id='1087'> +7.4530614e+04 </wgt>
<wgt id='1088'> +7.4527696e+04 </wgt>
<wgt id='1089'> +7.4414825e+04 </wgt>
<wgt id='1090'> +7.4543310e+04 </wgt>
<wgt id='1091'> +7.4491712e+04 </wgt>
<wgt id='1092'> +7.4506476e+04 </wgt>
<wgt id='1093'> +7.4546502e+04 </wgt>
<wgt id='1094'> +7.4541043e+04 </wgt>
<wgt id='1095'> +7.4495804e+04 </wgt>
<wgt id='1096'> +7.4411276e+04 </wgt>
<wgt id='1097'> +7.4539202e+04 </wgt>
<wgt id='1098'> +7.4457408e+04 </wgt>
<wgt id='1099'> +7.4578233e+04 </wgt>
<wgt id='1100'> +7.4515284e+04 </wgt>
<wgt id='1101'> +7.4553013e+04 </wgt>
<wgt id='1102'> +7.4551904e+04 </wgt>
<wgt id='1103'> +7.4497833e+04 </wgt>
<wgt id='1104'> +7.4504147e+04 </wgt>
<wgt id='1105'> +7.4510382e+04 </wgt>
<wgt id='1106'> +7.4557762e+04 </wgt>
<wgt id='1107'> +7.4520335e+04 </wgt>
<wgt id='1108'> +7.4543016e+04 </wgt>
<wgt id='1109'> +7.4519592e+04 </wgt>
<wgt id='1110'> +7.4519531e+04 </wgt>
<wgt id='1111'> +7.4195052e+04 </wgt>
<wgt id='1112'> +7.4873442e+04 </wgt>
<wgt id='1113'> +7.4519531e+04 </wgt>
<wgt id='1114'> +8.1366292e+04 </wgt>
<wgt id='1115'> +7.5233052e+04 </wgt>
<wgt id='1116'> +7.4637442e+04 </wgt>
<wgt id='1117'> +7.4728630e+04 </wgt>
<wgt id='1118'> +7.2094404e+04 </wgt>
<wgt id='1119'> +7.6384605e+04 </wgt>
<wgt id='1120'> +7.4575128e+04 </wgt>
<wgt id='1121'> +7.2145029e+04 </wgt>
<wgt id='1122'> +7.2030413e+04 </wgt>
<wgt id='1123'> +7.2783910e+04 </wgt>
<wgt id='1124'> +7.4997668e+04 </wgt>
<wgt id='1125'> +7.1513578e+04 </wgt>
<wgt id='1126'> +7.3403068e+04 </wgt>
<wgt id='1127'> +7.4321951e+04 </wgt>
<wgt id='1128'> +7.5470404e+04 </wgt>
<wgt id='1129'> +7.4908957e+04 </wgt>
<wgt id='1130'> +7.5972439e+04 </wgt>
<wgt id='1131'> +7.2658952e+04 </wgt>
<wgt id='1132'> +7.4635551e+04 </wgt>
<wgt id='1133'> +7.0954675e+04 </wgt>
<wgt id='1134'> +7.3806754e+04 </wgt>
<wgt id='1135'> +7.7079739e+04 </wgt>
<wgt id='1136'> +7.5336328e+04 </wgt>
<wgt id='1137'> +7.2939036e+04 </wgt>
<wgt id='1138'> +7.3595159e+04 </wgt>
<wgt id='1139'> +7.7433510e+04 </wgt>
<wgt id='1140'> +7.6916414e+04 </wgt>
<wgt id='1141'> +7.2734317e+04 </wgt>
<wgt id='1142'> +7.4754815e+04 </wgt>
<wgt id='1143'> +7.5433904e+04 </wgt>
<wgt id='1144'> +7.7092483e+04 </wgt>
<wgt id='1145'> +7.3590515e+04 </wgt>
<wgt id='1146'> +7.6344221e+04 </wgt>
<wgt id='1147'> +7.1286596e+04 </wgt>
<wgt id='1148'> +7.6457117e+04 </wgt>
<wgt id='1149'> +7.5949783e+04 </wgt>
<wgt id='1150'> +7.4820294e+04 </wgt>
<wgt id='1151'> +7.4023373e+04 </wgt>
<wgt id='1152'> +7.3384472e+04 </wgt>
<wgt id='1153'> +7.6611414e+04 </wgt>
<wgt id='1154'> +7.5398472e+04 </wgt>
<wgt id='1155'> +7.4270616e+04 </wgt>
<wgt id='1156'> +7.5662822e+04 </wgt>
<wgt id='1157'> +7.5219231e+04 </wgt>
<wgt id='1158'> +7.5360695e+04 </wgt>
<wgt id='1159'> +7.6711465e+04 </wgt>
<wgt id='1160'> +7.4582396e+04 </wgt>
<wgt id='1161'> +7.2677869e+04 </wgt>
<wgt id='1162'> +7.5263626e+04 </wgt>
<wgt id='1163'> +7.4019463e+04 </wgt>
<wgt id='1164'> +7.2068774e+04 </wgt>
<wgt id='1165'> +7.3506155e+04 </wgt>
<wgt id='1166'> +7.3404296e+04 </wgt>
<wgt id='1167'> +7.5482932e+04 </wgt>
<wgt id='1168'> +7.6841173e+04 </wgt>
<wgt id='1169'> +7.4699849e+04 </wgt>
<wgt id='1170'> +7.6244239e+04 </wgt>
<wgt id='1171'> +7.4345363e+04 </wgt>
<wgt id='1172'> +7.4947429e+04 </wgt>
<wgt id='1173'> +7.6741541e+04 </wgt>
<wgt id='1174'> +7.5971638e+04 </wgt>
<wgt id='1175'> +7.3316202e+04 </wgt>
<wgt id='1176'> +7.4557376e+04 </wgt>
<wgt id='1177'> +7.1499239e+04 </wgt>
<wgt id='1178'> +7.6293240e+04 </wgt>
<wgt id='1179'> +7.5557855e+04 </wgt>
<wgt id='1180'> +7.4273421e+04 </wgt>
<wgt id='1181'> +7.6387418e+04 </wgt>
<wgt id='1182'> +7.4789393e+04 </wgt>
<wgt id='1183'> +7.2806509e+04 </wgt>
<wgt id='1184'> +7.3464554e+04 </wgt>
<wgt id='1185'> +7.3798794e+04 </wgt>
<wgt id='1186'> +7.1273013e+04 </wgt>
<wgt id='1187'> +7.2259381e+04 </wgt>
<wgt id='1188'> +7.2456018e+04 </wgt>
<wgt id='1189'> +7.8337402e+04 </wgt>
<wgt id='1190'> +7.3165297e+04 </wgt>
<wgt id='1191'> +7.4100165e+04 </wgt>
<wgt id='1192'> +7.4035930e+04 </wgt>
<wgt id='1193'> +7.4057166e+04 </wgt>
<wgt id='1194'> +7.4461662e+04 </wgt>
<wgt id='1195'> +7.4908957e+04 </wgt>
<wgt id='1196'> +7.4406575e+04 </wgt>
<wgt id='1197'> +7.3299449e+04 </wgt>
<wgt id='1198'> +7.5172088e+04 </wgt>
<wgt id='1199'> +7.5502932e+04 </wgt>
<wgt id='1200'> +7.2360876e+04 </wgt>
<wgt id='1201'> +7.5963582e+04 </wgt>
<wgt id='1202'> +7.1110899e+04 </wgt>
<wgt id='1203'> +7.2728759e+04 </wgt>
<wgt id='1204'> +7.4621030e+04 </wgt>
<wgt id='1205'> +7.1929666e+04 </wgt>
<wgt id='1206'> +7.3485651e+04 </wgt>
<wgt id='1207'> +7.3494446e+04 </wgt>
<wgt id='1208'> +7.4759287e+04 </wgt>
<wgt id='1209'> +7.4940904e+04 </wgt>
<wgt id='1210'> +7.6223659e+04 </wgt>
<wgt id='1211'> +7.5882648e+04 </wgt>
<wgt id='1212'> +7.6440577e+04 </wgt>
<wgt id='1213'> +7.5488465e+04 </wgt>
<wgt id='1214'> +7.4504375e+04 </wgt>
<wgt id='1215'> +7.2985611e+04 </wgt>
<wgt id='1216'> +7.3060172e+04 </wgt>
<wgt id='1217'> +7.3420307e+04 </wgt>
<wgt id='1218'> +7.3833922e+04 </wgt>
<wgt id='1219'> +7.4220758e+04 </wgt>
<wgt id='1220'> +7.4695414e+04 </wgt>
<wgt id='1221'> +7.5126744e+04 </wgt>
<wgt id='1222'> +7.5401136e+04 </wgt>
<wgt id='1223'> +7.5081381e+04 </wgt>
<wgt id='1224'> +7.5202283e+04 </wgt>
<wgt id='1225'> +7.4942881e+04 </wgt>
<wgt id='1226'> +7.5173956e+04 </wgt>
<wgt id='1227'> +7.5329671e+04 </wgt>
<wgt id='1228'> +7.5211950e+04 </wgt>
<wgt id='1229'> +7.5011977e+04 </wgt>
<wgt id='1230'> +7.5127557e+04 </wgt>
<wgt id='1231'> +7.4910384e+04 </wgt>
<wgt id='1232'> +7.4984658e+04 </wgt>
<wgt id='1233'> +7.4484769e+04 </wgt>
<wgt id='1234'> +7.5208303e+04 </wgt>
<wgt id='1235'> +7.5473937e+04 </wgt>
<wgt id='1236'> +7.4897775e+04 </wgt>
<wgt id='1237'> +7.5519851e+04 </wgt>
<wgt id='1238'> +7.4780133e+04 </wgt>
<wgt id='1239'> +7.5425192e+04 </wgt>
<wgt id='1240'> +7.5001244e+04 </wgt>
<wgt id='1241'> +7.5304019e+04 </wgt>
<wgt id='1242'> +7.4929999e+04 </wgt>
<wgt id='1243'> +7.4711084e+04 </wgt>
<wgt id='1244'> +7.5508512e+04 </wgt>
<wgt id='1245'> +7.5132111e+04 </wgt>
<wgt id='1246'> +7.5085851e+04 </wgt>
<wgt id='1247'> +7.5162376e+04 </wgt>
<wgt id='1248'> +7.4720900e+04 </wgt>
<wgt id='1249'> +7.5008871e+04 </wgt>
<wgt id='1250'> +7.5284252e+04 </wgt>
<wgt id='1251'> +7.5153024e+04 </wgt>
<wgt id='1252'> +7.5150703e+04 </wgt>
<wgt id='1253'> +7.4549900e+04 </wgt>
<wgt id='1254'> +7.5483240e+04 </wgt>
<wgt id='1255'> +7.4690787e+04 </wgt>
<wgt id='1256'> +7.5537859e+04 </wgt>
<wgt id='1257'> +7.5112848e+04 </wgt>
<wgt id='1258'> +7.4994809e+04 </wgt>
<wgt id='1259'> +7.4936612e+04 </wgt>
<wgt id='1260'> +7.4813200e+04 </wgt>
<wgt id='1261'> +7.4902391e+04 </wgt>
<wgt id='1262'> +7.5040958e+04 </wgt>
<wgt id='1263'> +7.5094041e+04 </wgt>
<wgt id='1264'> +7.4836149e+04 </wgt>
<wgt id='1265'> +7.4984714e+04 </wgt>
<wgt id='1266'> +7.5013793e+04 </wgt>
<wgt id='1267'> +7.4969862e+04 </wgt>
<wgt id='1268'> +7.5057250e+04 </wgt>
<wgt id='1269'> +7.5104588e+04 </wgt>
<wgt id='1270'> +7.4958808e+04 </wgt>
<wgt id='1271'> +7.5057858e+04 </wgt>
<wgt id='1272'> +7.5233402e+04 </wgt>
<wgt id='1273'> +7.5113213e+04 </wgt>
<wgt id='1274'> +7.5161617e+04 </wgt>
<wgt id='1275'> +7.5016404e+04 </wgt>
<wgt id='1276'> +7.5048636e+04 </wgt>
<wgt id='1277'> +7.4953201e+04 </wgt>
<wgt id='1278'> +7.5049885e+04 </wgt>
<wgt id='1279'> +7.5241605e+04 </wgt>
<wgt id='1280'> +7.5009636e+04 </wgt>
<wgt id='1281'> +7.5061133e+04 </wgt>
<wgt id='1282'> +7.5135435e+04 </wgt>
<wgt id='1283'> +7.5093288e+04 </wgt>
<wgt id='1284'> +7.5116239e+04 </wgt>
<wgt id='1285'> +7.5140897e+04 </wgt>
<wgt id='1286'> +7.5195829e+04 </wgt>
<wgt id='1287'> +7.5089978e+04 </wgt>
<wgt id='1288'> +7.5081934e+04 </wgt>
<wgt id='1289'> +7.5205624e+04 </wgt>
<wgt id='1290'> +7.4941084e+04 </wgt>
<wgt id='1291'> +7.5017079e+04 </wgt>
<wgt id='1292'> +7.5111311e+04 </wgt>
<wgt id='1293'> +7.4906297e+04 </wgt>
<wgt id='1294'> +7.5118519e+04 </wgt>
<wgt id='1295'> +7.5100632e+04 </wgt>
<wgt id='1296'> +7.5014030e+04 </wgt>
<wgt id='1297'> +7.5206505e+04 </wgt>
<wgt id='1298'> +7.4932118e+04 </wgt>
<wgt id='1299'> +7.5142595e+04 </wgt>
<wgt id='1300'> +7.5049771e+04 </wgt>
<wgt id='1301'> +7.5050285e+04 </wgt>
<wgt id='1302'> +7.5025445e+04 </wgt>
<wgt id='1303'> +7.5154898e+04 </wgt>
<wgt id='1304'> +7.5091211e+04 </wgt>
<wgt id='1305'> +7.5071328e+04 </wgt>
<wgt id='1306'> +7.5079505e+04 </wgt>
<wgt id='1307'> +7.5007085e+04 </wgt>
<wgt id='1308'> +7.5133207e+04 </wgt>
<wgt id='1309'> +7.5120113e+04 </wgt>
<wgt id='1310'> +7.5008269e+04 </wgt>
<wgt id='1311'> +7.5158562e+04 </wgt>
<wgt id='1312'> +7.5094329e+04 </wgt>
<wgt id='1313'> +7.5125534e+04 </wgt>
<wgt id='1314'> +7.4996038e+04 </wgt>
<wgt id='1315'> +7.5010176e+04 </wgt>
<wgt id='1316'> +7.5112402e+04 </wgt>
<wgt id='1317'> +7.5027927e+04 </wgt>
<wgt id='1318'> +7.5021528e+04 </wgt>
<wgt id='1319'> +7.5122788e+04 </wgt>
<wgt id='1320'> +7.5112029e+04 </wgt>
<wgt id='1321'> +7.5053027e+04 </wgt>
<wgt id='1322'> +7.5096095e+04 </wgt>
<wgt id='1323'> +7.5032303e+04 </wgt>
<wgt id='1324'> +7.4683808e+04 </wgt>
<wgt id='1325'> +7.5718483e+04 </wgt>
<wgt id='1326'> +7.1068581e+04 </wgt>
<wgt id='1327'> +7.0460086e+04 </wgt>
<wgt id='1328'> +7.4283018e+04 </wgt>
<wgt id='1329'> +7.5013566e+04 </wgt>
<wgt id='1330'> +7.2897791e+04 </wgt>
<wgt id='1331'> +7.4976062e+04 </wgt>
<wgt id='1332'> +7.3838319e+04 </wgt>
<wgt id='1333'> +7.4462148e+04 </wgt>
<wgt id='1334'> +7.7063763e+04 </wgt>
<wgt id='1335'> +7.4350206e+04 </wgt>
<wgt id='1336'> +7.5555447e+04 </wgt>
<wgt id='1337'> +7.3018315e+04 </wgt>
<wgt id='1338'> +7.3373890e+04 </wgt>
<wgt id='1339'> +7.5032253e+04 </wgt>
<wgt id='1340'> +7.5622216e+04 </wgt>
<wgt id='1341'> +7.2739858e+04 </wgt>
<wgt id='1342'> +7.2767627e+04 </wgt>
<wgt id='1343'> +7.4338751e+04 </wgt>
<wgt id='1344'> +7.3942496e+04 </wgt>
<wgt id='1345'> +7.4805677e+04 </wgt>
<wgt id='1346'> +7.3560066e+04 </wgt>
<wgt id='1347'> +7.4975798e+04 </wgt>
<wgt id='1348'> +7.5358546e+04 </wgt>
<wgt id='1349'> +7.3693802e+04 </wgt>
<wgt id='1350'> +7.3232290e+04 </wgt>
<wgt id='1351'> +7.5453847e+04 </wgt>
<wgt id='1352'> +7.3079585e+04 </wgt>
<wgt id='1353'> +7.5264185e+04 </wgt>
<wgt id='1354'> +7.3918921e+04 </wgt>
<wgt id='1355'> +7.2168888e+04 </wgt>
<wgt id='1356'> +7.3073110e+04 </wgt>
<wgt id='1357'> +7.4933070e+04 </wgt>
<wgt id='1358'> +7.3640808e+04 </wgt>
<wgt id='1359'> +7.3595397e+04 </wgt>
<wgt id='1360'> +7.3460423e+04 </wgt>
<wgt id='1361'> +7.4626301e+04 </wgt>
<wgt id='1362'> +7.2155565e+04 </wgt>
<wgt id='1363'> +7.4873271e+04 </wgt>
<wgt id='1364'> +7.3323412e+04 </wgt>
<wgt id='1365'> +7.6464199e+04 </wgt>
<wgt id='1366'> +7.4152167e+04 </wgt>
<wgt id='1367'> +7.3399164e+04 </wgt>
<wgt id='1368'> +7.4282116e+04 </wgt>
<wgt id='1369'> +7.6812211e+04 </wgt>
<wgt id='1370'> +7.2655678e+04 </wgt>
<wgt id='1371'> +7.4335137e+04 </wgt>
<wgt id='1372'> +7.3785544e+04 </wgt>
<wgt id='1373'> +7.3708527e+04 </wgt>
<wgt id='1374'> +7.3453566e+04 </wgt>
<wgt id='1375'> +7.3180677e+04 </wgt>
<wgt id='1376'> +7.3962068e+04 </wgt>
<wgt id='1377'> +7.3114006e+04 </wgt>
<wgt id='1378'> +7.5626386e+04 </wgt>
<wgt id='1379'> +7.3422374e+04 </wgt>
<wgt id='1380'> +7.5024922e+04 </wgt>
<wgt id='1381'> +7.3954724e+04 </wgt>
<wgt id='1382'> +7.7017768e+04 </wgt>
<wgt id='1383'> +7.4223350e+04 </wgt>
<wgt id='1384'> +7.4026779e+04 </wgt>
<wgt id='1385'> +7.5439468e+04 </wgt>
<wgt id='1386'> +7.3029596e+04 </wgt>
<wgt id='1387'> +7.1537590e+04 </wgt>
<wgt id='1388'> +7.3066289e+04 </wgt>
<wgt id='1389'> +7.1993951e+04 </wgt>
<wgt id='1390'> +7.7598415e+04 </wgt>
<wgt id='1391'> +7.4325124e+04 </wgt>
<wgt id='1392'> +7.3618579e+04 </wgt>
<wgt id='1393'> +7.4791377e+04 </wgt>
<wgt id='1394'> +7.6464199e+04 </wgt>
<wgt id='1395'> +7.4316503e+04 </wgt>
<wgt id='1396'> +7.3822456e+04 </wgt>
<wgt id='1397'> +7.3585757e+04 </wgt>
<wgt id='1398'> +7.4951748e+04 </wgt>
<wgt id='1399'> +7.3121638e+04 </wgt>
<wgt id='1400'> +7.4145790e+04 </wgt>
<wgt id='1401'> +7.3245530e+04 </wgt>
<wgt id='1402'> +7.3649072e+04 </wgt>
<wgt id='1403'> +7.4203107e+04 </wgt>
<wgt id='1404'> +7.2792498e+04 </wgt>
<wgt id='1405'> +7.7006378e+04 </wgt>
<wgt id='1406'> +7.4589279e+04 </wgt>
<wgt id='1407'> +7.3165163e+04 </wgt>
<wgt id='1408'> +7.3332012e+04 </wgt>
<wgt id='1409'> +7.4725683e+04 </wgt>
<wgt id='1410'> +7.5646178e+04 </wgt>
<wgt id='1411'> +7.4865292e+04 </wgt>
<wgt id='1412'> +7.3171981e+04 </wgt>
<wgt id='1413'> +7.4424289e+04 </wgt>
<wgt id='1414'> +7.7229084e+04 </wgt>
<wgt id='1415'> +7.7366485e+04 </wgt>
<wgt id='1416'> +7.4839548e+04 </wgt>
<wgt id='1417'> +7.6071691e+04 </wgt>
<wgt id='1418'> +7.3115345e+04 </wgt>
<wgt id='1419'> +7.3482107e+04 </wgt>
<wgt id='1420'> +7.7105466e+04 </wgt>
<wgt id='1421'> +7.4250962e+04 </wgt>
<wgt id='1422'> +7.3870245e+04 </wgt>
<wgt id='1423'> +7.5492644e+04 </wgt>
<wgt id='1424'> +7.4655232e+04 </wgt>
<wgt id='1425'> +7.4934631e+04 </wgt>
<wgt id='1426'> +7.4063642e+04 </wgt>
<wgt id='1427'> +7.3113848e+04 </wgt>
<wgt id='1428'> +7.3440282e+04 </wgt>
<wgt id='1429'> +7.4500307e+04 </wgt>
<wgt id='1430'> +7.4041394e+04 </wgt>
<wgt id='1431'> +7.4319757e+04 </wgt>
<wgt id='1432'> +7.4011344e+04 </wgt>
<wgt id='1433'> +7.4761118e+04 </wgt>
<wgt id='1434'> +7.4309297e+04 </wgt>
<wgt id='1435'> +7.4750587e+04 </wgt>
<wgt id='1436'> +7.4325847e+04 </wgt>
<wgt id='1437'> +7.4034996e+04 </wgt>
<wgt id='1438'> +7.4271024e+04 </wgt>
<wgt id='1439'> +7.5036739e+04 </wgt>
<wgt id='1440'> +7.4195259e+04 </wgt>
<wgt id='1441'> +7.4239681e+04 </wgt>
<wgt id='1442'> +7.3906471e+04 </wgt>
<wgt id='1443'> +7.4333265e+04 </wgt>
<wgt id='1444'> +7.4652811e+04 </wgt>
<wgt id='1445'> +7.4217281e+04 </wgt>
<wgt id='1446'> +7.4077418e+04 </wgt>
<wgt id='1447'> +7.4167099e+04 </wgt>
<wgt id='1448'> +7.4504698e+04 </wgt>
<wgt id='1449'> +7.4417226e+04 </wgt>
<wgt id='1450'> +7.4274810e+04 </wgt>
<wgt id='1451'> +7.4303946e+04 </wgt>
<wgt id='1452'> +7.4368956e+04 </wgt>
<wgt id='1453'> +7.4244870e+04 </wgt>
<wgt id='1454'> +7.4359912e+04 </wgt>
<wgt id='1455'> +7.4337362e+04 </wgt>
<wgt id='1456'> +7.4237881e+04 </wgt>
<wgt id='1457'> +7.4370527e+04 </wgt>
<wgt id='1458'> +7.4253275e+04 </wgt>
<wgt id='1459'> +7.4220723e+04 </wgt>
<wgt id='1460'> +7.4360933e+04 </wgt>
<wgt id='1461'> +7.4217847e+04 </wgt>
<wgt id='1462'> +7.4235846e+04 </wgt>
<wgt id='1463'> +7.4311016e+04 </wgt>
<wgt id='1464'> +7.4274473e+04 </wgt>
<wgt id='1465'> +7.4310507e+04 </wgt>
<wgt id='1466'> +7.4284041e+04 </wgt>
<wgt id='1467'> +7.4297616e+04 </wgt>
<wgt id='1468'> +7.4301346e+04 </wgt>
<wgt id='1469'> +7.4310410e+04 </wgt>
<wgt id='1470'> +7.4308535e+04 </wgt>
<wgt id='1471'> +7.4341959e+04 </wgt>
<wgt id='1472'> +7.4292214e+04 </wgt>
<wgt id='1473'> +7.4356484e+04 </wgt>
<wgt id='1474'> +7.4310825e+04 </wgt>
<wgt id='1475'> +7.4367253e+04 </wgt>
<wgt id='1476'> +7.4325113e+04 </wgt>
<wgt id='1477'> +7.4319964e+04 </wgt>
<wgt id='1478'> +7.4354729e+04 </wgt>
<wgt id='1479'> +7.4348770e+04 </wgt>
<wgt id='1480'> +7.4305667e+04 </wgt>
<wgt id='1481'> +7.4351422e+04 </wgt>
<wgt id='1482'> +7.4500307e+04 </wgt>
<wgt id='1483'> +7.4041394e+04 </wgt>
<wgt id='1484'> +7.2109435e+04 </wgt>
<wgt id='1485'> +7.1573970e+04 </wgt>
<wgt id='1486'> +7.2409591e+04 </wgt>
<wgt id='1487'> +7.3034351e+04 </wgt>
<wgt id='1488'> +7.1773953e+04 </wgt>
<wgt id='1489'> +7.1258991e+04 </wgt>
<wgt id='1490'> +7.5312605e+04 </wgt>
<wgt id='1491'> +7.3816356e+04 </wgt>
<wgt id='1492'> +7.1499736e+04 </wgt>
<wgt id='1493'> +7.2470235e+04 </wgt>
<wgt id='1494'> +7.1299382e+04 </wgt>
<wgt id='1495'> +7.2913806e+04 </wgt>
<wgt id='1496'> +7.2296939e+04 </wgt>
<wgt id='1497'> +7.2773749e+04 </wgt>
<wgt id='1498'> +7.2523071e+04 </wgt>
<wgt id='1499'> +7.1838020e+04 </wgt>
<wgt id='1500'> +7.3815570e+04 </wgt>
<wgt id='1501'> +7.4443205e+04 </wgt>
<wgt id='1502'> +7.1862325e+04 </wgt>
<wgt id='1503'> +7.2213219e+04 </wgt>
<wgt id='1504'> +7.2092876e+04 </wgt>
<wgt id='1505'> +7.3390065e+04 </wgt>
<wgt id='1506'> +7.2296060e+04 </wgt>
<wgt id='1507'> +7.1682156e+04 </wgt>
<wgt id='1508'> +7.2651877e+04 </wgt>
<wgt id='1509'> +7.1053103e+04 </wgt>
<wgt id='1510'> +7.1073404e+04 </wgt>
<wgt id='1511'> +7.1097933e+04 </wgt>
<wgt id='1512'> +7.5011854e+04 </wgt>
<wgt id='1513'> +7.0999484e+04 </wgt>
<wgt id='1514'> +7.2138318e+04 </wgt>
<wgt id='1515'> +7.1765860e+04 </wgt>
<wgt id='1516'> +7.3223791e+04 </wgt>
<wgt id='1517'> +7.1738445e+04 </wgt>
<wgt id='1518'> +7.1547414e+04 </wgt>
<wgt id='1519'> +7.0655121e+04 </wgt>
<wgt id='1520'> +7.3155617e+04 </wgt>
<wgt id='1521'> +7.3417473e+04 </wgt>
<wgt id='1522'> +7.1350930e+04 </wgt>
<wgt id='1523'> +7.0738197e+04 </wgt>
<wgt id='1524'> +7.1108413e+04 </wgt>
<wgt id='1525'> +7.2653675e+04 </wgt>
<wgt id='1526'> +7.0918884e+04 </wgt>
<wgt id='1527'> +7.1063674e+04 </wgt>
<wgt id='1528'> +7.1578715e+04 </wgt>
<wgt id='1529'> +7.1232141e+04 </wgt>
<wgt id='1530'> +7.1296755e+04 </wgt>
<wgt id='1531'> +7.2645367e+04 </wgt>
<wgt id='1532'> +7.6355057e+04 </wgt>
<wgt id='1533'> +7.1792701e+04 </wgt>
<wgt id='1534'> +7.1912999e+04 </wgt>
<wgt id='1535'> +7.2671119e+04 </wgt>
<wgt id='1536'> +7.1621730e+04 </wgt>
<wgt id='1537'> +7.2325108e+04 </wgt>
<wgt id='1538'> +7.0374413e+04 </wgt>
<wgt id='1539'> +7.1884680e+04 </wgt>
<wgt id='1540'> +7.1516805e+04 </wgt>
<wgt id='1541'> +7.1946987e+04 </wgt>
<wgt id='1542'> +7.0656520e+04 </wgt>
<wgt id='1543'> +7.1769342e+04 </wgt>
<wgt id='1544'> +7.2184975e+04 </wgt>
<wgt id='1545'> +7.1987214e+04 </wgt>
<wgt id='1546'> +7.1570101e+04 </wgt>
<wgt id='1547'> +7.1194179e+04 </wgt>
<wgt id='1548'> +7.1788833e+04 </wgt>
<wgt id='1549'> +7.0771646e+04 </wgt>
<wgt id='1550'> +7.1597365e+04 </wgt>
<wgt id='1551'> +7.2392151e+04 </wgt>
<wgt id='1552'> +7.0926027e+04 </wgt>
<wgt id='1553'> +7.1878613e+04 </wgt>
<wgt id='1554'> +7.1925190e+04 </wgt>
<wgt id='1555'> +7.0825467e+04 </wgt>
<wgt id='1556'> +7.0580344e+04 </wgt>
<wgt id='1557'> +7.1443177e+04 </wgt>
<wgt id='1558'> +7.2184197e+04 </wgt>
<wgt id='1559'> +7.1621372e+04 </wgt>
<wgt id='1560'> +7.3011752e+04 </wgt>
<wgt id='1561'> +7.1844452e+04 </wgt>
<wgt id='1562'> +7.1545240e+04 </wgt>
<wgt id='1563'> +7.3219140e+04 </wgt>
<wgt id='1564'> +7.3320850e+04 </wgt>
<wgt id='1565'> +7.3985436e+04 </wgt>
<wgt id='1566'> +7.1786641e+04 </wgt>
<wgt id='1567'> +7.2866187e+04 </wgt>
<wgt id='1568'> +7.1346114e+04 </wgt>
<wgt id='1569'> +7.1535386e+04 </wgt>
<wgt id='1570'> +7.0688013e+04 </wgt>
<wgt id='1571'> +7.1433166e+04 </wgt>
<wgt id='1572'> +7.2527728e+04 </wgt>
<wgt id='1573'> +7.1737234e+04 </wgt>
<wgt id='1574'> +7.0029602e+04 </wgt>
<wgt id='1575'> +7.5848158e+04 </wgt>
<wgt id='1576'> +7.1907784e+04 </wgt>
<wgt id='1577'> +7.1497167e+04 </wgt>
<wgt id='1578'> +7.0779993e+04 </wgt>
<wgt id='1579'> +7.2824813e+04 </wgt>
<wgt id='1580'> +7.1035921e+04 </wgt>
<wgt id='1581'> +7.2169614e+04 </wgt>
<wgt id='1582'> +7.3373115e+04 </wgt>
<wgt id='1583'> +7.3574139e+04 </wgt>
<wgt id='1584'> +7.4814962e+04 </wgt>
<wgt id='1585'> +7.5859028e+04 </wgt>
<wgt id='1586'> +8.3304035e+04 </wgt>
<wgt id='1587'> +7.4625221e+04 </wgt>
<wgt id='1588'> +7.4500307e+04 </wgt>
<wgt id='1589'> +7.4373774e+04 </wgt>
<wgt id='1590'> +7.4436296e+04 </wgt>
<wgt id='1591'> +7.4041394e+04 </wgt>
<wgt id='1592'> +7.4116571e+04 </wgt>
<wgt id='1593'> +7.0981830e+04 </wgt>
<wgt id='1594'> +7.0616026e+04 </wgt>
<wgt id='1595'> +6.9842725e+04 </wgt>
<wgt id='1596'> +7.1289163e+04 </wgt>
<wgt id='1597'> +7.0295890e+04 </wgt>
<wgt id='1598'> +6.9756221e+04 </wgt>
<wgt id='1599'> +7.1604195e+04 </wgt>
<wgt id='1600'> +6.8912414e+04 </wgt>
<wgt id='1601'> +7.2771348e+04 </wgt>
<wgt id='1602'> +6.9723986e+04 </wgt>
<wgt id='1603'> +7.2131843e+04 </wgt>
<wgt id='1604'> +7.0921517e+04 </wgt>
<wgt id='1605'> +7.1354635e+04 </wgt>
<wgt id='1606'> +7.0426988e+04 </wgt>
<wgt id='1607'> +7.1100545e+04 </wgt>
<wgt id='1608'> +7.1248630e+04 </wgt>
<wgt id='1609'> +6.9453939e+04 </wgt>
<wgt id='1610'> +7.1077472e+04 </wgt>
<wgt id='1611'> +7.0644924e+04 </wgt>
<wgt id='1612'> +7.1162351e+04 </wgt>
<wgt id='1613'> +6.9854013e+04 </wgt>
<wgt id='1614'> +7.0854362e+04 </wgt>
<wgt id='1615'> +7.1152312e+04 </wgt>
<wgt id='1616'> +7.0590538e+04 </wgt>
<wgt id='1617'> +7.0574534e+04 </wgt>
<wgt id='1618'> +7.1102581e+04 </wgt>
<wgt id='1619'> +7.0705946e+04 </wgt>
<wgt id='1620'> +6.9926123e+04 </wgt>
<wgt id='1621'> +7.1444081e+04 </wgt>
<wgt id='1622'> +7.0917982e+04 </wgt>
<wgt id='1623'> +7.0303974e+04 </wgt>
<wgt id='1624'> +7.0763271e+04 </wgt>
<wgt id='1625'> +7.0156599e+04 </wgt>
<wgt id='1626'> +6.9782604e+04 </wgt>
<wgt id='1627'> +7.1810614e+04 </wgt>
<wgt id='1628'> +7.0472616e+04 </wgt>
<wgt id='1629'> +7.1062925e+04 </wgt>
<wgt id='1630'> +7.1524773e+04 </wgt>
<wgt id='1631'> +6.9803681e+04 </wgt>
<wgt id='1632'> +7.0811763e+04 </wgt>
<wgt id='1633'> +7.0667903e+04 </wgt>
<wgt id='1634'> +7.1426056e+04 </wgt>
<wgt id='1635'> +7.0335774e+04 </wgt>
<wgt id='1636'> +7.1037426e+04 </wgt>
<wgt id='1637'> +7.0892579e+04 </wgt>
<wgt id='1638'> +7.1470692e+04 </wgt>
<wgt id='1639'> +7.0634859e+04 </wgt>
<wgt id='1640'> +7.1277286e+04 </wgt>
<wgt id='1641'> +6.9988631e+04 </wgt>
<wgt id='1642'> +7.0798590e+04 </wgt>
<wgt id='1643'> +7.0641566e+04 </wgt>
<wgt id='1644'> +7.2154055e+04 </wgt>
<wgt id='1645'> +6.9086509e+04 </wgt>
<wgt id='1646'> +7.1319697e+04 </wgt>
<wgt id='1647'> +7.0572128e+04 </wgt>
<wgt id='1648'> +7.0761340e+04 </wgt>
<wgt id='1649'> +7.0359863e+04 </wgt>
<wgt id='1650'> +7.0763426e+04 </wgt>
<wgt id='1651'> +7.1207010e+04 </wgt>
<wgt id='1652'> +7.2067653e+04 </wgt>
<wgt id='1653'> +7.1520069e+04 </wgt>
<wgt id='1654'> +7.0462860e+04 </wgt>
<wgt id='1655'> +6.9972983e+04 </wgt>
<wgt id='1656'> +7.1061366e+04 </wgt>
<wgt id='1657'> +7.0149743e+04 </wgt>
<wgt id='1658'> +7.0779750e+04 </wgt>
<wgt id='1659'> +7.1611106e+04 </wgt>
<wgt id='1660'> +7.0606577e+04 </wgt>
<wgt id='1661'> +7.1778067e+04 </wgt>
<wgt id='1662'> +6.9860400e+04 </wgt>
<wgt id='1663'> +7.0599018e+04 </wgt>
<wgt id='1664'> +7.0380984e+04 </wgt>
<wgt id='1665'> +7.0671945e+04 </wgt>
<wgt id='1666'> +7.0851015e+04 </wgt>
<wgt id='1667'> +7.0934051e+04 </wgt>
<wgt id='1668'> +7.0978916e+04 </wgt>
<wgt id='1669'> +7.1917915e+04 </wgt>
<wgt id='1670'> +6.9574827e+04 </wgt>
<wgt id='1671'> +7.1063297e+04 </wgt>
<wgt id='1672'> +7.0974785e+04 </wgt>
<wgt id='1673'> +7.1221053e+04 </wgt>
<wgt id='1674'> +7.0951171e+04 </wgt>
<wgt id='1675'> +7.1276015e+04 </wgt>
<wgt id='1676'> +7.0608249e+04 </wgt>
<wgt id='1677'> +7.0739268e+04 </wgt>
<wgt id='1678'> +7.1084446e+04 </wgt>
<wgt id='1679'> +7.0471547e+04 </wgt>
<wgt id='1680'> +7.2201540e+04 </wgt>
<wgt id='1681'> +7.0386525e+04 </wgt>
<wgt id='1682'> +7.1043888e+04 </wgt>
<wgt id='1683'> +7.0223630e+04 </wgt>
<wgt id='1684'> +7.1652005e+04 </wgt>
<wgt id='1685'> +7.1477727e+04 </wgt>
<wgt id='1686'> +7.0343362e+04 </wgt>
<wgt id='1687'> +7.1409198e+04 </wgt>
<wgt id='1688'> +7.0234230e+04 </wgt>
<wgt id='1689'> +7.2051086e+04 </wgt>
<wgt id='1690'> +7.0240317e+04 </wgt>
<wgt id='1691'> +7.0622017e+04 </wgt>
<wgt id='1692'> +7.0637311e+04 </wgt>
<wgt id='1693'> +7.2084270e+04 </wgt>
<wgt id='1694'> +7.0451598e+04 </wgt>
<wgt id='1695'> +7.1356375e+04 </wgt>
<wgt id='1696'> +7.0266700e+04 </wgt>
<wgt id='1697'> +7.1363227e+04 </wgt>
<wgt id='1698'> +7.0558411e+04 </wgt>
<wgt id='1699'> +7.0220414e+04 </wgt>
<wgt id='1700'> +7.1788168e+04 </wgt>
<wgt id='1701'> +7.0225060e+04 </wgt>
<wgt id='1702'> +7.2065056e+04 </wgt>
<wgt id='1703'> +7.1480831e+04 </wgt>
<wgt id='1704'> +7.0577497e+04 </wgt>
<wgt id='1705'> +7.0413610e+04 </wgt>
<wgt id='1706'> +7.1253543e+04 </wgt>
<wgt id='1707'> +6.9414546e+04 </wgt>
<wgt id='1708'> +7.1991219e+04 </wgt>
<wgt id='1709'> +7.0637403e+04 </wgt>
<wgt id='1710'> +7.1384026e+04 </wgt>
<wgt id='1711'> +7.0471667e+04 </wgt>
<wgt id='1712'> +7.0596659e+04 </wgt>
<wgt id='1713'> +7.0175245e+04 </wgt>
<wgt id='1714'> +7.1334540e+04 </wgt>
<wgt id='1715'> +6.8756011e+04 </wgt>
<wgt id='1716'> +7.1824001e+04 </wgt>
<wgt id='1717'> +7.0695617e+04 </wgt>
<wgt id='1718'> +7.0481223e+04 </wgt>
<wgt id='1719'> +7.0970504e+04 </wgt>
<wgt id='1720'> +7.0403464e+04 </wgt>
<wgt id='1721'> +7.0962486e+04 </wgt>
<wgt id='1722'> +7.0507598e+04 </wgt>
<wgt id='1723'> +7.1003669e+04 </wgt>
<wgt id='1724'> +7.1070921e+04 </wgt>
<wgt id='1725'> +7.0390490e+04 </wgt>
<wgt id='1726'> +7.0797451e+04 </wgt>
<wgt id='1727'> +7.0590575e+04 </wgt>
<wgt id='1728'> +7.0397224e+04 </wgt>
<wgt id='1729'> +7.0983766e+04 </wgt>
<wgt id='1730'> +7.0759795e+04 </wgt>
<wgt id='1731'> +7.0650007e+04 </wgt>
<wgt id='1732'> +7.0817690e+04 </wgt>
<wgt id='1733'> +7.0817690e+04 </wgt>
<wgt id='1734'> +7.0866371e+04 </wgt>
<wgt id='1735'> +7.0578502e+04 </wgt>
<wgt id='1736'> +7.0595683e+04 </wgt>
<wgt id='1737'> +7.0836845e+04 </wgt>
<wgt id='1738'> +7.0721060e+04 </wgt>
<wgt id='1739'> +7.0639054e+04 </wgt>
<wgt id='1740'> +7.0639398e+04 </wgt>
<wgt id='1741'> +7.0831992e+04 </wgt>
<wgt id='1742'> +7.0436669e+04 </wgt>
<wgt id='1743'> +7.0993391e+04 </wgt>
<wgt id='1744'> +7.0594406e+04 </wgt>
<wgt id='1745'> +7.0974292e+04 </wgt>
<wgt id='1746'> +7.0175882e+04 </wgt>
<wgt id='1747'> +7.0993264e+04 </wgt>
<wgt id='1748'> +7.0906153e+04 </wgt>
<wgt id='1749'> +7.0033606e+04 </wgt>
<wgt id='1750'> +7.0744276e+04 </wgt>
<wgt id='1751'> +7.0643657e+04 </wgt>
<wgt id='1752'> +7.0802172e+04 </wgt>
<wgt id='1753'> +7.0556962e+04 </wgt>
<wgt id='1754'> +7.0816864e+04 </wgt>
<wgt id='1755'> +7.0630575e+04 </wgt>
<wgt id='1756'> +7.0736806e+04 </wgt>
<wgt id='1757'> +7.0622089e+04 </wgt>
<wgt id='1758'> +7.0899108e+04 </wgt>
<wgt id='1759'> +7.0494841e+04 </wgt>
<wgt id='1760'> +7.0181675e+04 </wgt>
<wgt id='1761'> +7.1227362e+04 </wgt>
<wgt id='1762'> +7.0596435e+04 </wgt>
<wgt id='1763'> +7.0528249e+04 </wgt>
<wgt id='1764'> +7.0675071e+04 </wgt>
<wgt id='1765'> +7.0905944e+04 </wgt>
<wgt id='1766'> +7.0941485e+04 </wgt>
<wgt id='1767'> +7.0350792e+04 </wgt>
<wgt id='1768'> +7.0778134e+04 </wgt>
<wgt id='1769'> +7.0598696e+04 </wgt>
<wgt id='1770'> +7.0139300e+04 </wgt>
<wgt id='1771'> +7.0943712e+04 </wgt>
<wgt id='1772'> +7.0506941e+04 </wgt>
<wgt id='1773'> +7.1162025e+04 </wgt>
<wgt id='1774'> +7.0496700e+04 </wgt>
<wgt id='1775'> +7.0815185e+04 </wgt>
<wgt id='1776'> +7.0967690e+04 </wgt>
<wgt id='1777'> +7.0582238e+04 </wgt>
<wgt id='1778'> +7.0516093e+04 </wgt>
<wgt id='1779'> +7.0438840e+04 </wgt>
<wgt id='1780'> +7.1246468e+04 </wgt>
<wgt id='1781'> +7.0869110e+04 </wgt>
<wgt id='1782'> +7.0695617e+04 </wgt>
<wgt id='1783'> +7.0781116e+04 </wgt>
<wgt id='1784'> +7.1343578e+04 </wgt>
<wgt id='1785'> +7.1650247e+04 </wgt>
<wgt id='1786'> +7.0550971e+04 </wgt>
<wgt id='1787'> +7.1295533e+04 </wgt>
<wgt id='1788'> +7.0524922e+04 </wgt>
<wgt id='1789'> +7.1413834e+04 </wgt>
<wgt id='1790'> +7.1480319e+04 </wgt>
<wgt id='1791'> +7.1533540e+04 </wgt>
<wgt id='1792'> +7.0476332e+04 </wgt>
<wgt id='1793'> +7.1544825e+04 </wgt>
<wgt id='1794'> +7.1144729e+04 </wgt>
<wgt id='1795'> +7.1494144e+04 </wgt>
<wgt id='1796'> +7.1539353e+04 </wgt>
<wgt id='1797'> +7.1483796e+04 </wgt>
<wgt id='1798'> +7.1444607e+04 </wgt>
<wgt id='1799'> +7.1679384e+04 </wgt>
<wgt id='1800'> +7.1459115e+04 </wgt>
<wgt id='1801'> +7.1700288e+04 </wgt>
<wgt id='1802'> +7.1649429e+04 </wgt>
<wgt id='1803'> +7.1199969e+04 </wgt>
<wgt id='1804'> +7.1599243e+04 </wgt>
<wgt id='1805'> +7.0799653e+04 </wgt>
<wgt id='1806'> +7.1257320e+04 </wgt>
<wgt id='1807'> +7.1283233e+04 </wgt>
<wgt id='1808'> +7.1380383e+04 </wgt>
<wgt id='1809'> +7.1227339e+04 </wgt>
<wgt id='1810'> +7.1354199e+04 </wgt>
<wgt id='1811'> +7.1448549e+04 </wgt>
<wgt id='1812'> +7.1292223e+04 </wgt>
<wgt id='1813'> +7.1448023e+04 </wgt>
<wgt id='1814'> +7.1545272e+04 </wgt>
<wgt id='1815'> +7.1322959e+04 </wgt>
<wgt id='1816'> +7.1309406e+04 </wgt>
<wgt id='1817'> +7.1356267e+04 </wgt>
<wgt id='1818'> +7.1469938e+04 </wgt>
<wgt id='1819'> +7.1418934e+04 </wgt>
<wgt id='1820'> +7.1464131e+04 </wgt>
<wgt id='1821'> +7.1784655e+04 </wgt>
<wgt id='1822'> +7.1350811e+04 </wgt>
<wgt id='1823'> +7.1438297e+04 </wgt>
<wgt id='1824'> +7.1273665e+04 </wgt>
<wgt id='1825'> +7.1413574e+04 </wgt>
<wgt id='1826'> +7.1951134e+04 </wgt>
<wgt id='1827'> +7.6546327e+04 </wgt>
<wgt id='1828'> +7.6661799e+04 </wgt>
<wgt id='1829'> +7.6457112e+04 </wgt>
<wgt id='1830'> +7.6492903e+04 </wgt>
<wgt id='1831'> +7.6625470e+04 </wgt>
<wgt id='1832'> +7.6689619e+04 </wgt>
<wgt id='1833'> +7.6429146e+04 </wgt>
<wgt id='1834'> +7.6336826e+04 </wgt>
<wgt id='1835'> +7.6772925e+04 </wgt>
<wgt id='1836'> +7.6838664e+04 </wgt>
<wgt id='1837'> +7.6279216e+04 </wgt>
<wgt id='1838'> +7.6660695e+04 </wgt>
<wgt id='1839'> +7.6458025e+04 </wgt>
<wgt id='1840'> +7.6370945e+04 </wgt>
<wgt id='1841'> +7.6747993e+04 </wgt>
<wgt id='1842'> +7.6450173e+04 </wgt>
<wgt id='1843'> +7.6645960e+04 </wgt>
<wgt id='1844'> +7.6460935e+04 </wgt>
<wgt id='1845'> +7.6641520e+04 </wgt>
<wgt id='1846'> +7.6565978e+04 </wgt>
<wgt id='1847'> +7.6547427e+04 </wgt>
<wgt id='1848'> +7.5687857e+04 </wgt>
<wgt id='1849'> +7.7327991e+04 </wgt>
<wgt id='1850'> +7.6271930e+04 </wgt>
<wgt id='1851'> +7.6839030e+04 </wgt>
<wgt id='1852'> +7.6330117e+04 </wgt>
<wgt id='1853'> +7.6576625e+04 </wgt>
<wgt id='1854'> +7.6261801e+04 </wgt>
<wgt id='1855'> +7.6823003e+04 </wgt>
<wgt id='1856'> +7.2605585e+04 </wgt>
<wgt id='1857'> +7.2591954e+04 </wgt>
<wgt id='1858'> +7.2528664e+04 </wgt>
<wgt id='1859'> +7.2777375e+04 </wgt>
<wgt id='1860'> +7.2606174e+04 </wgt>
<wgt id='1861'> +7.2617836e+04 </wgt>
<wgt id='1862'> +7.2409183e+04 </wgt>
<wgt id='1863'> +7.2646531e+04 </wgt>
<wgt id='1864'> +7.2373707e+04 </wgt>
<wgt id='1865'> +7.2643246e+04 </wgt>
<wgt id='1866'> +7.2689557e+04 </wgt>
<wgt id='1867'> +7.2480230e+04 </wgt>
<wgt id='1868'> +7.2698225e+04 </wgt>
<wgt id='1869'> +7.2738577e+04 </wgt>
<wgt id='1870'> +7.2397066e+04 </wgt>
<wgt id='1871'> +7.2684598e+04 </wgt>
<wgt id='1872'> +7.2518343e+04 </wgt>
<wgt id='1873'> +7.2583151e+04 </wgt>
<wgt id='1874'> +7.2396376e+04 </wgt>
<wgt id='1875'> +7.2690281e+04 </wgt>
<wgt id='1876'> +7.2399585e+04 </wgt>
<wgt id='1877'> +7.2466071e+04 </wgt>
<wgt id='1878'> +7.2430270e+04 </wgt>
<wgt id='1879'> +7.2520331e+04 </wgt>
<wgt id='1880'> +7.2789287e+04 </wgt>
<wgt id='1881'> +7.2656166e+04 </wgt>
<wgt id='1882'> +7.2621979e+04 </wgt>
<wgt id='1883'> +7.2391085e+04 </wgt>
<wgt id='1884'> +7.2876017e+04 </wgt>
<wgt id='1885'> +7.2189322e+04 </wgt>
<wgt id='1886'> +9.2370704e+04 </wgt>
<wgt id='1887'> +9.5080313e+04 </wgt>
<wgt id='1888'> +7.8923504e+04 </wgt>
<wgt id='1889'> +8.6636251e+04 </wgt>
</rwgt>
</event>
<event npLO=" -1 " npNLO=" 0 ">
 5      0 +7.4519530e+04 2.04549120e+01 7.55820760e-03 1.20472470e-01
       -3 -1    0    0    0  501 +0.0000000000e+00 +0.0000000000e+00 +4.5731527521e+01 4.5731527521e+01 0.0000000000e+00 0.0000e+00 1.0000e+00
        4 -1    0    0  501    0 +0.0000000000e+00 +0.0000000000e+00 -3.4461977696e+01 3.4461977696e+01 0.0000000000e+00 0.0000e+00 -1.0000e+00
       24  2    1    2    0    0 +0.0000000000e+00 +0.0000000000e+00 +1.1269549824e+01 8.0193505217e+01 7.9397704789e+01 0.0000e+00 0.0000e+00
      -15  1    3    3    0    0 -2.2313085606e+01 +9.2603993656e-01 +3.8764026823e+01 4.4772076608e+01 1.7770000000e+00 0.0000e+00 1.0000e+00
       16  1    3    3    0    0 +2.2313085606e+01 -9.2603993656e-01 -2.7494476999e+01 3.5421428609e+01 0.0000000000e+00 0.0000e+00 -1.0000e+00
#aMCatNLO 1  0  0  1  2 0.60705896E+01 0.00000000E+00 -9  5  0 0.00000000E+00 0.00000000E+00 0.00000000E+00 0.00000000E+00 0.00000000E+00
<rwgt>
<wgt id='1001'> +7.4519530e+04 </wgt>
<wgt id='1002'> +7.2831167e+04 </wgt>
<wgt id='1003'> +7.6616616e+04 </wgt>
<wgt id='1004'> +8.8692858e+04 </wgt>
<wgt id='1005'> +8.6596901e+04 </wgt>
<wgt id='1006'> +9.1297018e+04 </wgt>
<wgt id='1007'> +6.1685806e+04 </wgt>
<wgt id='1008'> +6.0220834e+04 </wgt>
<wgt id='1009'> +6.3505714e+04 </wgt>
<wgt id='1010'> +7.4519530e+04 </wgt>
<wgt id='1011'> +7.5018598e+04 </wgt>
<wgt id='1012'> +7.4760075e+04 </wgt>
<wgt id='1013'> +7.6183957e+04 </wgt>
<wgt id='1014'> +7.3400828e+04 </wgt>
<wgt id='1015'> +7.5491580e+04 </wgt>
<wgt id='1016'> +7.4466527e+04 </wgt>
<wgt id='1017'> +7.4334814e+04 </wgt>
<wgt id='1018'> +7.5156429e+04 </wgt>
<wgt id='1019'> +7.3660855e+04 </wgt>
<wgt id='1020'> +7.5475494e+04 </wgt>
<wgt id='1021'> +7.5108804e+04 </wgt>
<wgt id='1022'> +7.3334724e+04 </wgt>
<wgt id='1023'> +7.3798531e+04 </wgt>
<wgt id='1024'> +7.3630504e+04 </wgt>
<wgt id='1025'> +7.2413392e+04 </wgt>
<wgt id='1026'> +7.5280650e+04 </wgt>
<wgt id='1027'> +7.4785229e+04 </wgt>
<wgt id='1028'> +7.5941566e+04 </wgt>
<wgt id='1029'> +7.4103583e+04 </wgt>
<wgt id='1030'> +7.4498435e+04 </wgt>
<wgt id='1031'> +7.4926019e+04 </wgt>
<wgt id='1032'> +7.3483912e+04 </wgt>
<wgt id='1033'> +7.5268976e+04 </wgt>
<wgt id='1034'> +7.6106809e+04 </wgt>
<wgt id='1035'> +7.5663101e+04 </wgt>
<wgt id='1036'> +7.4578320e+04 </wgt>
<wgt id='1037'> +7.3803833e+04 </wgt>
<wgt id='1038'> +7.4024248e+04 </wgt>
<wgt id='1039'> +7.5228333e+04 </wgt>
<wgt id='1040'> +7.4271489e+04 </wgt>
<wgt id='1041'> +7.4365291e+04 </wgt>
<wgt id='1042'> +7.5320836e+04 </wgt>
<wgt id='1043'> +7.4289559e+04 </wgt>
<wgt id='1044'> +7.4514369e+04 </wgt>
<wgt id='1045'> +7.4413345e+04 </wgt>
<wgt id='1046'> +7.4098174e+04 </wgt>
<wgt id='1047'> +7.4540653e+04 </wgt>
<wgt id='1048'> +7.4384432e+04 </wgt>
<wgt id='1049'> +7.4418636e+04 </wgt>
<wgt id='1050'> +7.4017419e+04 </wgt>
<wgt id='1051'> +7.4210057e+04 </wgt>
<wgt id='1052'> +7.4257785e+04 </wgt>
<wgt id='1053'> +7.4645897e+04 </wgt>
<wgt id='1054'> +7.4375975e+04 </wgt>
<wgt id='1055'> +7.4697874e+04 </wgt>
<wgt id='1056'> +7.4695136e+04 </wgt>
<wgt id='1057'> +7.4456814e+04 </wgt>
<wgt id='1058'> +7.4629847e+04 </wgt>
<wgt id='1059'> +7.4538497e+04 </wgt>
<wgt id='1060'> +7.4810521e+04 </wgt>
<wgt id='1061'> +7.4631492e+04 </wgt>
<wgt id='1062'> +7.4424313e+04 </wgt>
<wgt id='1063'> +7.4617577e+04 </wgt>
<wgt id='1064'> +7.4689255e+04 </wgt>
<wgt id='1065'> +7.4481912e+04 </wgt>
<wgt id='1066'> +7.4370906e+04 </wgt>
<wgt id='1067'> +7.4561294e+04 </wgt>
<wgt id='1068'> +7.4461464e+04 </wgt>
<wgt id='1069'> +7.4536909e+04 </wgt>
<wgt id='1070'> +7.4382860e+04 </wgt>
<wgt id='1071'> +7.4334771e+04 </wgt>
<wgt id='1072'> +7.4312685e+04 </wgt>
<wgt id='1073'> +7.4623978e+04 </wgt>
<wgt id='1074'> +7.4543347e+04 </wgt>
<wgt id='1075'> +7.4512267e+04 </wgt>
<wgt id='1076'> +7.4650767e+04 </wgt>
<wgt id='1077'> +7.4284803e+04 </wgt>
<wgt id='1078'> +7.4431935e+04 </wgt>
<wgt id='1079'> +7.4535171e+04 </wgt>
<wgt id='1080'> +7.4509632e+04 </wgt>
<wgt id='1081'> +7.4464296e+04 </wgt>
<wgt id='1082'> +7.4655990e+04 </wgt>
<wgt id='1083'> +7.4478123e+04 </wgt>
<wgt id='1084'> +7.4498351e+04 </wgt>
<wgt id='1085'> +7.4349763e+04 </wgt>
<wgt id='1086'> +7.4405785e+04 </wgt>
<wgt id='1087'> +7.4711059e+04 </wgt>
<wgt id='1088'> +7.4506025e+04 </wgt>
<wgt id='1089'> +7.4544180e+04 </wgt>
<wgt id='1090'> +7.4584726e+04 </wgt>
<wgt id='1091'> +7.4483019e+04 </wgt>
<wgt id='1092'> +7.4497529e+04 </wgt>
<wgt id='1093'> +7.4431312e+04 </wgt>
<wgt id='1094'> +7.4460207e+04 </wgt>
<wgt id='1095'> +7.4551328e+04 </wgt>
<wgt id='1096'> +7.4518360e+04 </wgt>
<wgt id='1097'> +7.4471104e+04 </wgt>
<wgt id='1098'> +7.4567782e+04 </wgt>
<wgt id='1099'> +7.4563854e+04 </wgt>
<wgt id='1100'> +7.4576304e+04 </wgt>
<wgt id='1101'> +7.4535354e+04 </wgt>
<wgt id='1102'> +7.4480052e+04 </wgt>
<wgt id='1103'> +7.4520388e+04 </wgt>
<wgt id='1104'> +7.4416612e+04 </wgt>
<wgt id='1105'> +7.4481008e+04 </wgt>
<wgt id='1106'> +7.4425328e+04 </wgt>
<wgt id='1107'> +7.4540455e+04 </wgt>
<wgt id='1108'> +7.4531891e+04 </wgt>
<wgt id='1109'> +7.4487636e+04 </wgt>
<wgt id='1110'> +7.4519496e+04 </wgt>
<wgt id='1111'> +7.1145889e+04 </wgt>
<wgt id='1112'> +7.6254408e+04 </wgt>
<wgt id='1113'> +7.4519496e+04 </wgt>
<wgt id='1114'> +5.9480503e+04 </wgt>
<wgt id='1115'> +7.6844386e+04 </wgt>
<wgt id='1116'> +7.9823266e+04 </wgt>
<wgt id='1117'> +7.5647782e+04 </wgt>
<wgt id='1118'> +7.3824623e+04 </wgt>
<wgt id='1119'> +6.0401411e+04 </wgt>
<wgt id='1120'> +7.3029704e+04 </wgt>
<wgt id='1121'> +8.3762616e+04 </wgt>
<wgt id='1122'> +7.6948606e+04 </wgt>
<wgt id='1123'> +7.2273482e+04 </wgt>
<wgt id='1124'> +7.1951553e+04 </wgt>
<wgt id='1125'> +8.0315498e+04 </wgt>
<wgt id='1126'> +7.9147309e+04 </wgt>
<wgt id='1127'> +7.3954054e+04 </wgt>
<wgt id='1128'> +7.3586198e+04 </wgt>
<wgt id='1129'> +7.3815501e+04 </wgt>
<wgt id='1130'> +6.7189542e+04 </wgt>
<wgt id='1131'> +7.9585235e+04 </wgt>
<wgt id='1132'> +7.6876398e+04 </wgt>
<wgt id='1133'> +8.4699621e+04 </wgt>
<wgt id='1134'> +7.7684740e+04 </wgt>
<wgt id='1135'> +7.5708901e+04 </wgt>
<wgt id='1136'> +7.1057544e+04 </wgt>
<wgt id='1137'> +8.3340189e+04 </wgt>
<wgt id='1138'> +8.2100223e+04 </wgt>
<wgt id='1139'> +7.3594563e+04 </wgt>
<wgt id='1140'> +7.0200922e+04 </wgt>
<wgt id='1141'> +7.7542515e+04 </wgt>
<wgt id='1142'> +7.4023897e+04 </wgt>
<wgt id='1143'> +6.6157818e+04 </wgt>
<wgt id='1144'> +6.6883472e+04 </wgt>
<wgt id='1145'> +7.7477657e+04 </wgt>
<wgt id='1146'> +7.1406568e+04 </wgt>
<wgt id='1147'> +8.1751555e+04 </wgt>
<wgt id='1148'> +7.2488021e+04 </wgt>
<wgt id='1149'> +7.4507081e+04 </wgt>
<wgt id='1150'> +7.9629247e+04 </wgt>
<wgt id='1151'> +7.6826368e+04 </wgt>
<wgt id='1152'> +6.7817701e+04 </wgt>
<wgt id='1153'> +7.3563858e+04 </wgt>
<wgt id='1154'> +7.4281690e+04 </wgt>
<wgt id='1155'> +7.1504924e+04 </wgt>
<wgt id='1156'> +7.0006388e+04 </wgt>
<wgt id='1157'> +6.6320790e+04 </wgt>
<wgt id='1158'> +7.6055185e+04 </wgt>
<wgt id='1159'> +7.1802277e+04 </wgt>
<wgt id='1160'> +7.5216037e+04 </wgt>
<wgt id='1161'> +7.8339600e+04 </wgt>
<wgt id='1162'> +6.8977879e+04 </wgt>
<wgt id='1163'> +7.0546203e+04 </wgt>
<wgt id='1164'> +7.5557523e+04 </wgt>
<wgt id='1165'> +7.7087986e+04 </wgt>
<wgt id='1166'> +7.4061376e+04 </wgt>
<wgt id='1167'> +6.9468876e+04 </wgt>
<wgt id='1168'> +7.7800679e+04 </wgt>
<wgt id='1169'> +7.7270874e+04 </wgt>
<wgt id='1170'> +7.4492601e+04 </wgt>
<wgt id='1171'> +8.0514055e+04 </wgt>
<wgt id='1172'> +7.1308576e+04 </wgt>
<wgt id='1173'> +6.9752703e+04 </wgt>
<wgt id='1174'> +6.7733329e+04 </wgt>
<wgt id='1175'> +7.5858619e+04 </wgt>
<wgt id='1176'> +7.6072168e+04 </wgt>
<wgt id='1177'> +8.1755222e+04 </wgt>
<wgt id='1178'> +7.2556902e+04 </wgt>
<wgt id='1179'> +7.1033958e+04 </wgt>
<wgt id='1180'> +6.9584528e+04 </wgt>
<wgt id='1181'> +6.8193158e+04 </wgt>
<wgt id='1182'> +7.5989386e+04 </wgt>
<wgt id='1183'> +7.4869507e+04 </wgt>
<wgt id='1184'> +7.1861348e+04 </wgt>
<wgt id='1185'> +6.9485372e+04 </wgt>
<wgt id='1186'> +8.1865811e+04 </wgt>
<wgt id='1187'> +8.1167758e+04 </wgt>
<wgt id='1188'> +7.6121875e+04 </wgt>
<wgt id='1189'> +6.6333950e+04 </wgt>
<wgt id='1190'> +7.8333571e+04 </wgt>
<wgt id='1191'> +7.3357530e+04 </wgt>
<wgt id='1192'> +7.7809053e+04 </wgt>
<wgt id='1193'> +6.8301968e+04 </wgt>
<wgt id='1194'> +7.7525134e+04 </wgt>
<wgt id='1195'> +7.3815501e+04 </wgt>
<wgt id='1196'> +7.2107024e+04 </wgt>
<wgt id='1197'> +8.1259339e+04 </wgt>
<wgt id='1198'> +7.6313129e+04 </wgt>
<wgt id='1199'> +7.0584347e+04 </wgt>
<wgt id='1200'> +8.3605066e+04 </wgt>
<wgt id='1201'> +6.5437204e+04 </wgt>
<wgt id='1202'> +7.9315546e+04 </wgt>
<wgt id='1203'> +7.6604029e+04 </wgt>
<wgt id='1204'> +8.0746737e+04 </wgt>
<wgt id='1205'> +8.3164522e+04 </wgt>
<wgt id='1206'> +7.4276957e+04 </wgt>
<wgt id='1207'> +6.8194283e+04 </wgt>
<wgt id='1208'> +8.1216854e+04 </wgt>
<wgt id='1209'> +7.6984633e+04 </wgt>
<wgt id='1210'> +6.5702001e+04 </wgt>
<wgt id='1211'> +7.3561438e+04 </wgt>
<wgt id='1212'> +8.0571333e+04 </wgt>
<wgt id='1213'> +7.7123472e+04 </wgt>
<wgt id='1214'> +7.4467645e+04 </wgt>
<wgt id='1215'> +5.9867270e+04 </wgt>
<wgt id='1216'> +6.3523537e+04 </wgt>
<wgt id='1217'> +6.5850697e+04 </wgt>
<wgt id='1218'> +6.8199626e+04 </wgt>
<wgt id='1219'> +7.2560615e+04 </wgt>
<wgt id='1220'> +7.5184643e+04 </wgt>
<wgt id='1221'> +7.9917520e+04 </wgt>
<wgt id='1222'> +8.2746971e+04 </wgt>
<wgt id='1223'> +6.9688672e+04 </wgt>
<wgt id='1224'> +7.0130153e+04 </wgt>
<wgt id='1225'> +6.9130611e+04 </wgt>
<wgt id='1226'> +6.9664917e+04 </wgt>
<wgt id='1227'> +6.8231698e+04 </wgt>
<wgt id='1228'> +6.9278855e+04 </wgt>
<wgt id='1229'> +7.0481364e+04 </wgt>
<wgt id='1230'> +6.9054160e+04 </wgt>
<wgt id='1231'> +7.0110736e+04 </wgt>
<wgt id='1232'> +6.8929952e+04 </wgt>
<wgt id='1233'> +7.1983516e+04 </wgt>
<wgt id='1234'> +7.0342236e+04 </wgt>
<wgt id='1235'> +6.8875488e+04 </wgt>
<wgt id='1236'> +6.9199847e+04 </wgt>
<wgt id='1237'> +6.8315844e+04 </wgt>
<wgt id='1238'> +7.1787260e+04 </wgt>
<wgt id='1239'> +6.7916351e+04 </wgt>
<wgt id='1240'> +7.0194421e+04 </wgt>
<wgt id='1241'> +6.8766928e+04 </wgt>
<wgt id='1242'> +7.0245609e+04 </wgt>
<wgt id='1243'> +7.1231280e+04 </wgt>
<wgt id='1244'> +6.8114780e+04 </wgt>
<wgt id='1245'> +6.9373232e+04 </wgt>
<wgt id='1246'> +6.9894131e+04 </wgt>
<wgt id='1247'> +6.9288888e+04 </wgt>
<wgt id='1248'> +7.0464042e+04 </wgt>
<wgt id='1249'> +6.9631791e+04 </wgt>
<wgt id='1250'> +6.9958000e+04 </wgt>
<wgt id='1251'> +6.9933958e+04 </wgt>
<wgt id='1252'> +6.9385873e+04 </wgt>
<wgt id='1253'> +6.9582472e+04 </wgt>
<wgt id='1254'> +6.9734812e+04 </wgt>
<wgt id='1255'> +6.9763552e+04 </wgt>
<wgt id='1256'> +6.9579091e+04 </wgt>
<wgt id='1257'> +6.9593383e+04 </wgt>
<wgt id='1258'> +6.9493191e+04 </wgt>
<wgt id='1259'> +6.9270601e+04 </wgt>
<wgt id='1260'> +6.9232334e+04 </wgt>
<wgt id='1261'> +6.9415635e+04 </wgt>
<wgt id='1262'> +6.9556988e+04 </wgt>
<wgt id='1263'> +6.9374265e+04 </wgt>
<wgt id='1264'> +6.9940831e+04 </wgt>
<wgt id='1265'> +6.9638933e+04 </wgt>
<wgt id='1266'> +6.9586270e+04 </wgt>
<wgt id='1267'> +6.9655355e+04 </wgt>
<wgt id='1268'> +6.9453091e+04 </wgt>
<wgt id='1269'> +6.9488214e+04 </wgt>
<wgt id='1270'> +6.9775901e+04 </wgt>
<wgt id='1271'> +7.0037722e+04 </wgt>
<wgt id='1272'> +6.9641989e+04 </wgt>
<wgt id='1273'> +6.9500502e+04 </wgt>
<wgt id='1274'> +6.9584429e+04 </wgt>
<wgt id='1275'> +6.9738467e+04 </wgt>
<wgt id='1276'> +6.9620788e+04 </wgt>
<wgt id='1277'> +6.9782677e+04 </wgt>
<wgt id='1278'> +6.9761348e+04 </wgt>
<wgt id='1279'> +6.9704693e+04 </wgt>
<wgt id='1280'> +6.9720976e+04 </wgt>
<wgt id='1281'> +6.9695640e+04 </wgt>
<wgt id='1282'> +6.9735556e+04 </wgt>
<wgt id='1283'> +6.9610226e+04 </wgt>
<wgt id='1284'> +6.9634040e+04 </wgt>
<wgt id='1285'> +6.9624847e+04 </wgt>
<wgt id='1286'> +6.9604532e+04 </wgt>
<wgt id='1287'> +6.9682736e+04 </wgt>
<wgt id='1288'> +6.9859937e+04 </wgt>
<wgt id='1289'> +6.9555697e+04 </wgt>
<wgt id='1290'> +6.9591354e+04 </wgt>
<wgt id='1291'> +6.9669187e+04 </wgt>
<wgt id='1292'> +6.9735536e+04 </wgt>
<wgt id='1293'> +6.9706061e+04 </wgt>
<wgt id='1294'> +6.9690242e+04 </wgt>
<wgt id='1295'> +6.9722498e+04 </wgt>
<wgt id='1296'> +6.9624990e+04 </wgt>
<wgt id='1297'> +6.9621606e+04 </wgt>
<wgt id='1298'> +6.9655111e+04 </wgt>
<wgt id='1299'> +6.9671126e+04 </wgt>
<wgt id='1300'> +6.9597892e+04 </wgt>
<wgt id='1301'> +6.9609957e+04 </wgt>
<wgt id='1302'> +6.9679549e+04 </wgt>
<wgt id='1303'> +6.9704636e+04 </wgt>
<wgt id='1304'> +6.9680418e+04 </wgt>
<wgt id='1305'> +6.9781203e+04 </wgt>
<wgt id='1306'> +6.9668813e+04 </wgt>
<wgt id='1307'> +6.9598105e+04 </wgt>
<wgt id='1308'> +6.9766678e+04 </wgt>
<wgt id='1309'> +6.9713127e+04 </wgt>
<wgt id='1310'> +6.9730808e+04 </wgt>
<wgt id='1311'> +6.9750924e+04 </wgt>
<wgt id='1312'> +6.9657118e+04 </wgt>
<wgt id='1313'> +6.9667400e+04 </wgt>
<wgt id='1314'> +6.9736813e+04 </wgt>
<wgt id='1315'> +6.9712863e+04 </wgt>
<wgt id='1316'> +6.9645684e+04 </wgt>
<wgt id='1317'> +6.9653436e+04 </wgt>
<wgt id='1318'> +6.9613123e+04 </wgt>
<wgt id='1319'> +6.9646172e+04 </wgt>
<wgt id='1320'> +6.9640674e+04 </wgt>
<wgt id='1321'> +6.9790102e+04 </wgt>
<wgt id='1322'> +6.9733946e+04 </wgt>
<wgt id='1323'> +6.9539171e+04 </wgt>
<wgt id='1324'> +6.7473008e+04 </wgt>
<wgt id='1325'> +7.1985646e+04 </wgt>
<wgt id='1326'> +7.2025303e+04 </wgt>
<wgt id='1327'> +6.9965492e+04 </wgt>
<wgt id='1328'> +7.7569720e+04 </wgt>
<wgt id='1329'> +7.7409773e+04 </wgt>
<wgt id='1330'> +7.5882252e+04 </wgt>
<wgt id='1331'> +7.8405480e+04 </wgt>
<wgt id='1332'> +7.7433159e+04 </wgt>
<wgt id='1333'> +7.4488534e+04 </wgt>
<wgt id='1334'> +7.8867713e+04 </wgt>
<wgt id='1335'> +7.9860493e+04 </wgt>
<wgt id='1336'> +7.5851325e+04 </wgt>
<wgt id='1337'> +7.5983173e+04 </wgt>
<wgt id='1338'> +7.9651854e+04 </wgt>
<wgt id='1339'> +7.9424206e+04 </wgt>
<wgt id='1340'> +8.0577430e+04 </wgt>
<wgt id='1341'> +8.2518832e+04 </wgt>
<wgt id='1342'> +7.4929475e+04 </wgt>
<wgt id='1343'> +7.8729356e+04 </wgt>
<wgt id='1344'> +7.5035656e+04 </wgt>
<wgt id='1345'> +7.9403497e+04 </wgt>
<wgt id='1346'> +7.8752487e+04 </wgt>
<wgt id='1347'> +7.7408005e+04 </wgt>
<wgt id='1348'> +7.6995155e+04 </wgt>
<wgt id='1349'> +7.9441495e+04 </wgt>
<wgt id='1350'> +7.7579669e+04 </wgt>
<wgt id='1351'> +7.8056291e+04 </wgt>
<wgt id='1352'> +7.4374485e+04 </wgt>
<wgt id='1353'> +7.2885533e+04 </wgt>
<wgt id='1354'> +7.7749449e+04 </wgt>
<wgt id='1355'> +7.9225475e+04 </wgt>
<wgt id='1356'> +7.8380245e+04 </wgt>
<wgt id='1357'> +7.7562767e+04 </wgt>
<wgt id='1358'> +7.5220115e+04 </wgt>
<wgt id='1359'> +8.0389055e+04 </wgt>
<wgt id='1360'> +7.5899962e+04 </wgt>
<wgt id='1361'> +7.2824412e+04 </wgt>
<wgt id='1362'> +7.6379061e+04 </wgt>
<wgt id='1363'> +7.9044740e+04 </wgt>
<wgt id='1364'> +7.9080639e+04 </wgt>
<wgt id='1365'> +7.4016994e+04 </wgt>
<wgt id='1366'> +7.7132040e+04 </wgt>
<wgt id='1367'> +7.5491913e+04 </wgt>
<wgt id='1368'> +7.8333250e+04 </wgt>
<wgt id='1369'> +7.4084599e+04 </wgt>
<wgt id='1370'> +7.9169908e+04 </wgt>
<wgt id='1371'> +7.6857468e+04 </wgt>
<wgt id='1372'> +7.4657626e+04 </wgt>
<wgt id='1373'> +7.8371412e+04 </wgt>
<wgt id='1374'> +7.8045431e+04 </wgt>
<wgt id='1375'> +7.6494611e+04 </wgt>
<wgt id='1376'> +7.7617741e+04 </wgt>
<wgt id='1377'> +7.8698328e+04 </wgt>
<wgt id='1378'> +8.2224137e+04 </wgt>
<wgt id='1379'> +7.8143811e+04 </wgt>
<wgt id='1380'> +7.2943587e+04 </wgt>
<wgt id='1381'> +7.4635733e+04 </wgt>
<wgt id='1382'> +8.2691288e+04 </wgt>
<wgt id='1383'> +7.9619442e+04 </wgt>
<wgt id='1384'> +7.7413486e+04 </wgt>
<wgt id='1385'> +8.6146749e+04 </wgt>
<wgt id='1386'> +7.5663623e+04 </wgt>
<wgt id='1387'> +7.7666573e+04 </wgt>
<wgt id='1388'> +7.6025865e+04 </wgt>
<wgt id='1389'> +7.6864037e+04 </wgt>
<wgt id='1390'> +8.2718828e+04 </wgt>
<wgt id='1391'> +7.3805789e+04 </wgt>
<wgt id='1392'> +8.1330278e+04 </wgt>
<wgt id='1393'> +8.3797400e+04 </wgt>
<wgt id='1394'> +7.4016994e+04 </wgt>
<wgt id='1395'> +7.8124773e+04 </wgt>
<wgt id='1396'> +7.5863954e+04 </wgt>
<wgt id='1397'> +7.6954599e+04 </wgt>
<wgt id='1398'> +7.7095879e+04 </wgt>
<wgt id='1399'> +7.8057992e+04 </wgt>
<wgt id='1400'> +7.6191920e+04 </wgt>
<wgt id='1401'> +7.9531940e+04 </wgt>
<wgt id='1402'> +7.5235547e+04 </wgt>
<wgt id='1403'> +7.6147743e+04 </wgt>
<wgt id='1404'> +7.9573342e+04 </wgt>
<wgt id='1405'> +7.3202684e+04 </wgt>
<wgt id='1406'> +7.6238444e+04 </wgt>
<wgt id='1407'> +7.5200538e+04 </wgt>
<wgt id='1408'> +7.6662280e+04 </wgt>
<wgt id='1409'> +7.6304591e+04 </wgt>
<wgt id='1410'> +7.2883089e+04 </wgt>
<wgt id='1411'> +7.7037111e+04 </wgt>
<wgt id='1412'> +7.7065280e+04 </wgt>
<wgt id='1413'> +7.8463897e+04 </wgt>
<wgt id='1414'> +8.1851965e+04 </wgt>
<wgt id='1415'> +7.9080382e+04 </wgt>
<wgt id='1416'> +7.8750517e+04 </wgt>
<wgt id='1417'> +7.7423357e+04 </wgt>
<wgt id='1418'> +7.5296042e+04 </wgt>
<wgt id='1419'> +8.1532952e+04 </wgt>
<wgt id='1420'> +8.3441524e+04 </wgt>
<wgt id='1421'> +7.4570083e+04 </wgt>
<wgt id='1422'> +7.9360838e+04 </wgt>
<wgt id='1423'> +7.8051815e+04 </wgt>
<wgt id='1424'> +7.9892981e+04 </wgt>
<wgt id='1425'> +7.5975622e+04 </wgt>
<wgt id='1426'> +7.8503766e+04 </wgt>
<wgt id='1427'> +7.6848356e+04 </wgt>
<wgt id='1428'> +7.3513759e+04 </wgt>
<wgt id='1429'> +7.6073295e+04 </wgt>
<wgt id='1430'> +7.9887973e+04 </wgt>
<wgt id='1431'> +7.7899208e+04 </wgt>
<wgt id='1432'> +7.7784186e+04 </wgt>
<wgt id='1433'> +7.8795077e+04 </wgt>
<wgt id='1434'> +7.7739272e+04 </wgt>
<wgt id='1435'> +7.8054317e+04 </wgt>
<wgt id='1436'> +7.9810934e+04 </wgt>
<wgt id='1437'> +7.7467088e+04 </wgt>
<wgt id='1438'> +7.7698478e+04 </wgt>
<wgt id='1439'> +7.8225266e+04 </wgt>
<wgt id='1440'> +7.8214159e+04 </wgt>
<wgt id='1441'> +7.7980968e+04 </wgt>
<wgt id='1442'> +7.8775865e+04 </wgt>
<wgt id='1443'> +7.7960069e+04 </wgt>
<wgt id='1444'> +7.8532555e+04 </wgt>
<wgt id='1445'> +7.7486596e+04 </wgt>
<wgt id='1446'> +7.8386379e+04 </wgt>
<wgt id='1447'> +7.7808530e+04 </wgt>
<wgt id='1448'> +7.8078654e+04 </wgt>
<wgt id='1449'> +7.7730917e+04 </wgt>
<wgt id='1450'> +7.7857141e+04 </wgt>
<wgt id='1451'> +7.7918861e+04 </wgt>
<wgt id='1452'> +7.7722691e+04 </wgt>
<wgt id='1453'> +7.8045346e+04 </wgt>
<wgt id='1454'> +7.7822112e+04 </wgt>
<wgt id='1455'> +7.7976709e+04 </wgt>
<wgt id='1456'> +7.7953285e+04 </wgt>
<wgt id='1457'> +7.7983100e+04 </wgt>
<wgt id='1458'> +7.7841578e+04 </wgt>
<wgt id='1459'> +7.7883613e+04 </wgt>
<wgt id='1460'> +7.7784132e+04 </wgt>
<wgt id='1461'> +7.7858379e+04 </wgt>
<wgt id='1462'> +7.7900003e+04 </wgt>
<wgt id='1463'> +7.7998523e+04 </wgt>
<wgt id='1464'> +7.7862757e+04 </wgt>
<wgt id='1465'> +7.7877770e+04 </wgt>
<wgt id='1466'> +7.7795630e+04 </wgt>
<wgt id='1467'> +7.7940926e+04 </wgt>
<wgt id='1468'> +7.7886039e+04 </wgt>
<wgt id='1469'> +7.7935884e+04 </wgt>
<wgt id='1470'> +7.7961923e+04 </wgt>
<wgt id='1471'> +7.7942883e+04 </wgt>
<wgt id='1472'> +7.7963817e+04 </wgt>
<wgt id='1473'> +7.7905039e+04 </wgt>
<wgt id='1474'> +7.7912658e+04 </wgt>
<wgt id='1475'> +7.7987040e+04 </wgt>
<wgt id='1476'> +7.7788815e+04 </wgt>
<wgt id='1477'> +7.7913088e+04 </wgt>
<wgt id='1478'> +7.7926759e+04 </wgt>
<wgt id='1479'> +7.7898661e+04 </wgt>
<wgt id='1480'> +7.7927717e+04 </wgt>
<wgt id='1481'> +7.7905226e+04 </wgt>
<wgt id='1482'> +7.6073295e+04 </wgt>
<wgt id='1483'> +7.9887973e+04 </wgt>
<wgt id='1484'> +7.8364489e+04 </wgt>
<wgt id='1485'> +7.7116947e+04 </wgt>
<wgt id='1486'> +7.7264634e+04 </wgt>
<wgt id='1487'> +7.8083917e+04 </wgt>
<wgt id='1488'> +7.9750003e+04 </wgt>
<wgt id='1489'> +7.8542160e+04 </wgt>
<wgt id='1490'> +7.8234357e+04 </wgt>
<wgt id='1491'> +8.2815444e+04 </wgt>
<wgt id='1492'> +7.8633244e+04 </wgt>
<wgt id='1493'> +7.6058530e+04 </wgt>
<wgt id='1494'> +7.8318843e+04 </wgt>
<wgt id='1495'> +8.3415043e+04 </wgt>
<wgt id='1496'> +8.0549607e+04 </wgt>
<wgt id='1497'> +8.3782079e+04 </wgt>
<wgt id='1498'> +7.6006210e+04 </wgt>
<wgt id='1499'> +7.6788889e+04 </wgt>
<wgt id='1500'> +7.6432578e+04 </wgt>
<wgt id='1501'> +8.1261567e+04 </wgt>
<wgt id='1502'> +7.7713638e+04 </wgt>
<wgt id='1503'> +8.1194510e+04 </wgt>
<wgt id='1504'> +7.8299681e+04 </wgt>
<wgt id='1505'> +7.6265436e+04 </wgt>
<wgt id='1506'> +7.9673234e+04 </wgt>
<wgt id='1507'> +7.8536095e+04 </wgt>
<wgt id='1508'> +8.3793963e+04 </wgt>
<wgt id='1509'> +7.5758382e+04 </wgt>
<wgt id='1510'> +7.9166700e+04 </wgt>
<wgt id='1511'> +7.6879143e+04 </wgt>
<wgt id='1512'> +7.5766580e+04 </wgt>
<wgt id='1513'> +8.1787398e+04 </wgt>
<wgt id='1514'> +8.0468057e+04 </wgt>
<wgt id='1515'> +7.9733298e+04 </wgt>
<wgt id='1516'> +8.0197483e+04 </wgt>
<wgt id='1517'> +7.6252834e+04 </wgt>
<wgt id='1518'> +7.7256501e+04 </wgt>
<wgt id='1519'> +7.6533143e+04 </wgt>
<wgt id='1520'> +7.5620800e+04 </wgt>
<wgt id='1521'> +8.0192042e+04 </wgt>
<wgt id='1522'> +7.8320827e+04 </wgt>
<wgt id='1523'> +7.8612571e+04 </wgt>
<wgt id='1524'> +7.7186128e+04 </wgt>
<wgt id='1525'> +7.4834062e+04 </wgt>
<wgt id='1526'> +7.6322253e+04 </wgt>
<wgt id='1527'> +7.8014046e+04 </wgt>
<wgt id='1528'> +7.7025065e+04 </wgt>
<wgt id='1529'> +7.9117865e+04 </wgt>
<wgt id='1530'> +7.6703067e+04 </wgt>
<wgt id='1531'> +7.8673671e+04 </wgt>
<wgt id='1532'> +7.7744960e+04 </wgt>
<wgt id='1533'> +7.6060935e+04 </wgt>
<wgt id='1534'> +7.8852985e+04 </wgt>
<wgt id='1535'> +7.9956671e+04 </wgt>
<wgt id='1536'> +7.6598648e+04 </wgt>
<wgt id='1537'> +7.8748208e+04 </wgt>
<wgt id='1538'> +7.9853284e+04 </wgt>
<wgt id='1539'> +7.6813682e+04 </wgt>
<wgt id='1540'> +7.9561036e+04 </wgt>
<wgt id='1541'> +7.5492566e+04 </wgt>
<wgt id='1542'> +8.0197263e+04 </wgt>
<wgt id='1543'> +7.7779940e+04 </wgt>
<wgt id='1544'> +7.6815548e+04 </wgt>
<wgt id='1545'> +7.5995352e+04 </wgt>
<wgt id='1546'> +7.7016975e+04 </wgt>
<wgt id='1547'> +7.7704807e+04 </wgt>
<wgt id='1548'> +7.7685429e+04 </wgt>
<wgt id='1549'> +8.0068934e+04 </wgt>
<wgt id='1550'> +7.7583912e+04 </wgt>
<wgt id='1551'> +7.8399992e+04 </wgt>
<wgt id='1552'> +7.5751216e+04 </wgt>
<wgt id='1553'> +7.8740073e+04 </wgt>
<wgt id='1554'> +7.7906273e+04 </wgt>
<wgt id='1555'> +8.1922528e+04 </wgt>
<wgt id='1556'> +8.0268095e+04 </wgt>
<wgt id='1557'> +7.9261969e+04 </wgt>
<wgt id='1558'> +7.5251699e+04 </wgt>
<wgt id='1559'> +7.7164997e+04 </wgt>
<wgt id='1560'> +7.4382453e+04 </wgt>
<wgt id='1561'> +7.8317431e+04 </wgt>
<wgt id='1562'> +7.8114371e+04 </wgt>
<wgt id='1563'> +8.0206803e+04 </wgt>
<wgt id='1564'> +7.7806999e+04 </wgt>
<wgt id='1565'> +7.4926250e+04 </wgt>
<wgt id='1566'> +7.8723170e+04 </wgt>
<wgt id='1567'> +8.1380394e+04 </wgt>
<wgt id='1568'> +7.8334099e+04 </wgt>
<wgt id='1569'> +7.9167777e+04 </wgt>
<wgt id='1570'> +7.6627275e+04 </wgt>
<wgt id='1571'> +7.8917886e+04 </wgt>
<wgt id='1572'> +8.0446136e+04 </wgt>
<wgt id='1573'> +7.9414833e+04 </wgt>
<wgt id='1574'> +8.0276972e+04 </wgt>
<wgt id='1575'> +7.8482926e+04 </wgt>
<wgt id='1576'> +7.6673767e+04 </wgt>
<wgt id='1577'> +8.0357967e+04 </wgt>
<wgt id='1578'> +7.6429515e+04 </wgt>
<wgt id='1579'> +8.0248331e+04 </wgt>
<wgt id='1580'> +7.9141149e+04 </wgt>
<wgt id='1581'> +7.5925666e+04 </wgt>
<wgt id='1582'> +7.8475565e+04 </wgt>
<wgt id='1583'> +7.7335779e+04 </wgt>
<wgt id='1584'> +8.2095964e+04 </wgt>
<wgt id='1585'> +7.4482327e+04 </wgt>
<wgt id='1586'> +6.8832062e+04 </wgt>
<wgt id='1587'> +7.4313672e+04 </wgt>
<wgt id='1588'> +7.6073295e+04 </wgt>
<wgt id='1589'> +7.7035953e+04 </wgt>
<wgt id='1590'> +7.9531228e+04 </wgt>
<wgt id='1591'> +7.9887973e+04 </wgt>
<wgt id='1592'> +8.1846734e+04 </wgt>
<wgt id='1593'> +7.1943035e+04 </wgt>
<wgt id='1594'> +7.0495926e+04 </wgt>
<wgt id='1595'> +7.2865663e+04 </wgt>
<wgt id='1596'> +7.1241572e+04 </wgt>
<wgt id='1597'> +6.9270508e+04 </wgt>
<wgt id='1598'> +7.8343923e+04 </wgt>
<wgt id='1599'> +6.7996902e+04 </wgt>
<wgt id='1600'> +7.9497817e+04 </wgt>
<wgt id='1601'> +6.6086228e+04 </wgt>
<wgt id='1602'> +7.5967485e+04 </wgt>
<wgt id='1603'> +6.8927802e+04 </wgt>
<wgt id='1604'> +7.1017182e+04 </wgt>
<wgt id='1605'> +7.3711540e+04 </wgt>
<wgt id='1606'> +6.7640699e+04 </wgt>
<wgt id='1607'> +7.4417758e+04 </wgt>
<wgt id='1608'> +7.0359734e+04 </wgt>
<wgt id='1609'> +6.9584548e+04 </wgt>
<wgt id='1610'> +7.2480725e+04 </wgt>
<wgt id='1611'> +7.1430159e+04 </wgt>
<wgt id='1612'> +7.0664489e+04 </wgt>
<wgt id='1613'> +7.3569992e+04 </wgt>
<wgt id='1614'> +7.0181578e+04 </wgt>
<wgt id='1615'> +7.5267702e+04 </wgt>
<wgt id='1616'> +7.4208689e+04 </wgt>
<wgt id='1617'> +6.8752371e+04 </wgt>
<wgt id='1618'> +7.1196482e+04 </wgt>
<wgt id='1619'> +7.4084327e+04 </wgt>
<wgt id='1620'> +7.0158850e+04 </wgt>
<wgt id='1621'> +7.3215418e+04 </wgt>
<wgt id='1622'> +6.9967067e+04 </wgt>
<wgt id='1623'> +7.3245352e+04 </wgt>
<wgt id='1624'> +7.2659005e+04 </wgt>
<wgt id='1625'> +6.8307150e+04 </wgt>
<wgt id='1626'> +7.1066281e+04 </wgt>
<wgt id='1627'> +7.2578698e+04 </wgt>
<wgt id='1628'> +6.9206356e+04 </wgt>
<wgt id='1629'> +7.2443923e+04 </wgt>
<wgt id='1630'> +6.5783746e+04 </wgt>
<wgt id='1631'> +7.9424578e+04 </wgt>
<wgt id='1632'> +6.6643205e+04 </wgt>
<wgt id='1633'> +7.9156512e+04 </wgt>
<wgt id='1634'> +7.0396874e+04 </wgt>
<wgt id='1635'> +7.3685994e+04 </wgt>
<wgt id='1636'> +7.5208919e+04 </wgt>
<wgt id='1637'> +6.9903061e+04 </wgt>
<wgt id='1638'> +7.1612582e+04 </wgt>
<wgt id='1639'> +7.0209446e+04 </wgt>
<wgt id='1640'> +6.8018905e+04 </wgt>
<wgt id='1641'> +7.5025646e+04 </wgt>
<wgt id='1642'> +7.5910279e+04 </wgt>
<wgt id='1643'> +6.8960079e+04 </wgt>
<wgt id='1644'> +6.6447825e+04 </wgt>
<wgt id='1645'> +7.9687373e+04 </wgt>
<wgt id='1646'> +7.0339459e+04 </wgt>
<wgt id='1647'> +7.1840323e+04 </wgt>
<wgt id='1648'> +7.0407027e+04 </wgt>
<wgt id='1649'> +7.2759966e+04 </wgt>
<wgt id='1650'> +7.1909698e+04 </wgt>
<wgt id='1651'> +7.2132557e+04 </wgt>
<wgt id='1652'> +6.9793427e+04 </wgt>
<wgt id='1653'> +7.0940795e+04 </wgt>
<wgt id='1654'> +7.2813591e+04 </wgt>
<wgt id='1655'> +7.3565261e+04 </wgt>
<wgt id='1656'> +8.3691160e+04 </wgt>
<wgt id='1657'> +8.3798117e+04 </wgt>
<wgt id='1658'> +8.2595997e+04 </wgt>
<wgt id='1659'> +8.4005334e+04 </wgt>
<wgt id='1660'> +8.3398529e+04 </wgt>
<wgt id='1661'> +8.1505364e+04 </wgt>
<wgt id='1662'> +8.4465821e+04 </wgt>
<wgt id='1663'> +8.3336901e+04 </wgt>
<wgt id='1664'> +8.2935565e+04 </wgt>
<wgt id='1665'> +8.2520267e+04 </wgt>
<wgt id='1666'> +8.3901616e+04 </wgt>
<wgt id='1667'> +8.3388564e+04 </wgt>
<wgt id='1668'> +8.3915398e+04 </wgt>
<wgt id='1669'> +8.2423017e+04 </wgt>
<wgt id='1670'> +8.5679642e+04 </wgt>
<wgt id='1671'> +8.3268737e+04 </wgt>
<wgt id='1672'> +8.3999830e+04 </wgt>
<wgt id='1673'> +8.4795444e+04 </wgt>
<wgt id='1674'> +8.3008913e+04 </wgt>
<wgt id='1675'> +8.3350292e+04 </wgt>
<wgt id='1676'> +8.2245098e+04 </wgt>
<wgt id='1677'> +8.4899735e+04 </wgt>
<wgt id='1678'> +8.1712457e+04 </wgt>
<wgt id='1679'> +8.4728124e+04 </wgt>
<wgt id='1680'> +8.3896952e+04 </wgt>
<wgt id='1681'> +8.3932600e+04 </wgt>
<wgt id='1682'> +8.2507577e+04 </wgt>
<wgt id='1683'> +8.2633043e+04 </wgt>
<wgt id='1684'> +8.4001684e+04 </wgt>
<wgt id='1685'> +8.4604822e+04 </wgt>
<wgt id='1686'> +8.1779534e+04 </wgt>
<wgt id='1687'> +7.9742700e+04 </wgt>
<wgt id='1688'> +8.9524015e+04 </wgt>
<wgt id='1689'> +8.0426065e+04 </wgt>
<wgt id='1690'> +8.7628081e+04 </wgt>
<wgt id='1691'> +8.2566168e+04 </wgt>
<wgt id='1692'> +8.4196941e+04 </wgt>
<wgt id='1693'> +7.6312474e+04 </wgt>
<wgt id='1694'> +9.3387173e+04 </wgt>
<wgt id='1695'> +8.3251141e+04 </wgt>
<wgt id='1696'> +8.3992774e+04 </wgt>
<wgt id='1697'> +8.1794821e+04 </wgt>
<wgt id='1698'> +8.6020760e+04 </wgt>
<wgt id='1699'> +8.3928113e+04 </wgt>
<wgt id='1700'> +8.0554598e+04 </wgt>
<wgt id='1701'> +8.8544899e+04 </wgt>
<wgt id='1702'> +8.0134046e+04 </wgt>
<wgt id='1703'> +8.4298047e+04 </wgt>
<wgt id='1704'> +8.3528519e+04 </wgt>
<wgt id='1705'> +8.2468619e+04 </wgt>
<wgt id='1706'> +8.4003104e+04 </wgt>
<wgt id='1707'> +8.2400272e+04 </wgt>
<wgt id='1708'> +8.4342513e+04 </wgt>
<wgt id='1709'> +8.3356357e+04 </wgt>
<wgt id='1710'> +8.2631890e+04 </wgt>
<wgt id='1711'> +8.3063228e+04 </wgt>
<wgt id='1712'> +8.3452317e+04 </wgt>
<wgt id='1713'> +8.2684448e+04 </wgt>
<wgt id='1714'> +8.4026598e+04 </wgt>
<wgt id='1715'> +8.1556436e+04 </wgt>
<wgt id='1716'> +7.4715614e+04 </wgt>
<wgt id='1717'> +8.2363543e+04 </wgt>
<wgt id='1718'> +8.2199790e+04 </wgt>
<wgt id='1719'> +8.2573439e+04 </wgt>
<wgt id='1720'> +8.3219083e+04 </wgt>
<wgt id='1721'> +8.1582176e+04 </wgt>
<wgt id='1722'> +8.3511701e+04 </wgt>
<wgt id='1723'> +8.0482095e+04 </wgt>
<wgt id='1724'> +8.2199437e+04 </wgt>
<wgt id='1725'> +8.2496840e+04 </wgt>
<wgt id='1726'> +8.1866007e+04 </wgt>
<wgt id='1727'> +8.2876335e+04 </wgt>
<wgt id='1728'> +8.2254876e+04 </wgt>
<wgt id='1729'> +8.2468533e+04 </wgt>
<wgt id='1730'> +8.2078058e+04 </wgt>
<wgt id='1731'> +8.2567571e+04 </wgt>
<wgt id='1732'> +8.2031143e+04 </wgt>
<wgt id='1733'> +8.2031143e+04 </wgt>
<wgt id='1734'> +8.2498741e+04 </wgt>
<wgt id='1735'> +8.2268458e+04 </wgt>
<wgt id='1736'> +8.2901058e+04 </wgt>
<wgt id='1737'> +8.1628470e+04 </wgt>
<wgt id='1738'> +8.2011034e+04 </wgt>
<wgt id='1739'> +8.2942277e+04 </wgt>
<wgt id='1740'> +8.2271892e+04 </wgt>
<wgt id='1741'> +8.2586954e+04 </wgt>
<wgt id='1742'> +8.2216444e+04 </wgt>
<wgt id='1743'> +8.2544441e+04 </wgt>
<wgt id='1744'> +8.2312768e+04 </wgt>
<wgt id='1745'> +8.2499701e+04 </wgt>
<wgt id='1746'> +8.1111044e+04 </wgt>
<wgt id='1747'> +8.3087430e+04 </wgt>
<wgt id='1748'> +8.2832485e+04 </wgt>
<wgt id='1749'> +8.0896164e+04 </wgt>
<wgt id='1750'> +8.2113082e+04 </wgt>
<wgt id='1751'> +8.2633500e+04 </wgt>
<wgt id='1752'> +8.2388437e+04 </wgt>
<wgt id='1753'> +8.2334045e+04 </wgt>
<wgt id='1754'> +8.2341536e+04 </wgt>
<wgt id='1755'> +8.2379652e+04 </wgt>
<wgt id='1756'> +8.2176446e+04 </wgt>
<wgt id='1757'> +8.2897958e+04 </wgt>
<wgt id='1758'> +8.2627342e+04 </wgt>
<wgt id='1759'> +8.2106119e+04 </wgt>
<wgt id='1760'> +8.1967871e+04 </wgt>
<wgt id='1761'> +8.2815719e+04 </wgt>
<wgt id='1762'> +8.2213204e+04 </wgt>
<wgt id='1763'> +8.2161009e+04 </wgt>
<wgt id='1764'> +8.2392278e+04 </wgt>
<wgt id='1765'> +8.2233348e+04 </wgt>
<wgt id='1766'> +8.2278883e+04 </wgt>
<wgt id='1767'> +8.2453664e+04 </wgt>
<wgt id='1768'> +8.2223603e+04 </wgt>
<wgt id='1769'> +8.2426256e+04 </wgt>
<wgt id='1770'> +8.2442418e+04 </wgt>
<wgt id='1771'> +8.1867315e+04 </wgt>
<wgt id='1772'> +8.2467711e+04 </wgt>
<wgt id='1773'> +8.2453509e+04 </wgt>
<wgt id='1774'> +8.3691660e+04 </wgt>
<wgt id='1775'> +8.1458127e+04 </wgt>
<wgt id='1776'> +8.2437180e+04 </wgt>
<wgt id='1777'> +8.2302236e+04 </wgt>
<wgt id='1778'> +8.2439489e+04 </wgt>
<wgt id='1779'> +8.2085560e+04 </wgt>
<wgt id='1780'> +7.9541125e+04 </wgt>
<wgt id='1781'> +8.2686706e+04 </wgt>
<wgt id='1782'> +8.2363543e+04 </wgt>
<wgt id='1783'> +8.2352012e+04 </wgt>
<wgt id='1784'> +7.7802439e+04 </wgt>
<wgt id='1785'> +7.7760260e+04 </wgt>
<wgt id='1786'> +8.4476126e+04 </wgt>
<wgt id='1787'> +7.7982475e+04 </wgt>
<wgt id='1788'> +7.7442853e+04 </wgt>
<wgt id='1789'> +7.7454929e+04 </wgt>
<wgt id='1790'> +7.6921455e+04 </wgt>
<wgt id='1791'> +7.7138101e+04 </wgt>
<wgt id='1792'> +7.8948512e+04 </wgt>
<wgt id='1793'> +7.7379738e+04 </wgt>
<wgt id='1794'> +7.8105795e+04 </wgt>
<wgt id='1795'> +7.8202025e+04 </wgt>
<wgt id='1796'> +7.7929894e+04 </wgt>
<wgt id='1797'> +7.7796960e+04 </wgt>
<wgt id='1798'> +7.7331305e+04 </wgt>
<wgt id='1799'> +7.7434633e+04 </wgt>
<wgt id='1800'> +7.7135505e+04 </wgt>
<wgt id='1801'> +7.5921701e+04 </wgt>
<wgt id='1802'> +7.8102956e+04 </wgt>
<wgt id='1803'> +7.7471671e+04 </wgt>
<wgt id='1804'> +7.7661761e+04 </wgt>
<wgt id='1805'> +7.8518868e+04 </wgt>
<wgt id='1806'> +7.7211965e+04 </wgt>
<wgt id='1807'> +7.7808084e+04 </wgt>
<wgt id='1808'> +7.7588365e+04 </wgt>
<wgt id='1809'> +7.7575102e+04 </wgt>
<wgt id='1810'> +7.7822123e+04 </wgt>
<wgt id='1811'> +7.7880659e+04 </wgt>
<wgt id='1812'> +7.8597305e+04 </wgt>
<wgt id='1813'> +7.8304463e+04 </wgt>
<wgt id='1814'> +7.7211718e+04 </wgt>
<wgt id='1815'> +7.7759853e+04 </wgt>
<wgt id='1816'> +7.7654800e+04 </wgt>
<wgt id='1817'> +7.7391100e+04 </wgt>
<wgt id='1818'> +7.8134133e+04 </wgt>
<wgt id='1819'> +7.7727537e+04 </wgt>
<wgt id='1820'> +7.6591412e+04 </wgt>
<wgt id='1821'> +7.7699346e+04 </wgt>
<wgt id='1822'> +7.7474433e+04 </wgt>
<wgt id='1823'> +7.4488508e+04 </wgt>
<wgt id='1824'> +7.7760599e+04 </wgt>
<wgt id='1825'> +7.6944458e+04 </wgt>
<wgt id='1826'> +7.8748875e+04 </wgt>
<wgt id='1827'> +7.6609549e+04 </wgt>
<wgt id='1828'> +7.6669380e+04 </wgt>
<wgt id='1829'> +7.6550977e+04 </wgt>
<wgt id='1830'> +7.6697971e+04 </wgt>
<wgt id='1831'> +7.6522185e+04 </wgt>
<wgt id='1832'> +7.6790955e+04 </wgt>
<wgt id='1833'> +7.6429651e+04 </wgt>
<wgt id='1834'> +7.6651770e+04 </wgt>
<wgt id='1835'> +7.6563251e+04 </wgt>
<wgt id='1836'> +7.6877151e+04 </wgt>
<wgt id='1837'> +7.6341521e+04 </wgt>
<wgt id='1838'> +7.6717863e+04 </wgt>
<wgt id='1839'> +7.6502166e+04 </wgt>
<wgt id='1840'> +7.6358773e+04 </wgt>
<wgt id='1841'> +7.6865636e+04 </wgt>
<wgt id='1842'> +7.6518936e+04 </wgt>
<wgt id='1843'> +7.6757887e+04 </wgt>
<wgt id='1844'> +7.6600369e+04 </wgt>
<wgt id='1845'> +7.6594109e+04 </wgt>
<wgt id='1846'> +7.6482263e+04 </wgt>
<wgt id='1847'> +7.6725699e+04 </wgt>
<wgt id='1848'> +7.5906873e+04 </wgt>
<wgt id='1849'> +7.7158608e+04 </wgt>
<wgt id='1850'> +7.6905033e+04 </wgt>
<wgt id='1851'> +7.6289535e+04 </wgt>
<wgt id='1852'> +7.6754464e+04 </wgt>
<wgt id='1853'> +7.6222602e+04 </wgt>
<wgt id='1854'> +7.6875247e+04 </wgt>
<wgt id='1855'> +7.6456255e+04 </wgt>
<wgt id='1856'> +7.9096222e+04 </wgt>
<wgt id='1857'> +7.9071512e+04 </wgt>
<wgt id='1858'> +7.9099179e+04 </wgt>
<wgt id='1859'> +7.9022515e+04 </wgt>
<wgt id='1860'> +7.9101078e+04 </wgt>
<wgt id='1861'> +7.9413218e+04 </wgt>
<wgt id='1862'> +7.9505355e+04 </wgt>
<wgt id='1863'> +7.8353460e+04 </wgt>
<wgt id='1864'> +7.9301372e+04 </wgt>
<wgt id='1865'> +7.9218541e+04 </wgt>
<wgt id='1866'> +7.9187501e+04 </wgt>
<wgt id='1867'> +7.9129167e+04 </wgt>
<wgt id='1868'> +7.9594090e+04 </wgt>
<wgt id='1869'> +7.9069893e+04 </wgt>
<wgt id='1870'> +7.9313963e+04 </wgt>
<wgt id='1871'> +7.9089154e+04 </wgt>
<wgt id='1872'> +7.9287601e+04 </wgt>
<wgt id='1873'> +7.9081786e+04 </wgt>
<wgt id='1874'> +7.8997825e+04 </wgt>
<wgt id='1875'> +7.9106364e+04 </wgt>
<wgt id='1876'> +7.8776630e+04 </wgt>
<wgt id='1877'> +7.9748723e+04 </wgt>
<wgt id='1878'> +7.8558035e+04 </wgt>
<wgt id='1879'> +7.9361041e+04 </wgt>
<wgt id='1880'> +7.9570443e+04 </wgt>
<wgt id='1881'> +7.9806522e+04 </wgt>
<wgt id='1882'> +7.9126381e+04 </wgt>
<wgt id='1883'> +7.8812706e+04 </wgt>
<wgt id='1884'> +7.9294968e+04 </wgt>
<wgt id='1885'> +7.8224844e+04 </wgt>
<wgt id='1886'> +1.2093647e+04 </wgt>
<wgt id='1887'> +2.8322604e+04 </wgt>
<wgt id='1888'> +4.7526040e+04 </wgt>
<wgt id='1889'> +5.8085803e+04 </wgt>
</rwgt>
</event>
<event npLO=" -1 " npNLO=" 0 ">
 6      1 +7.4519530e+04 3.72563100e+01 7.55820760e-03 1.20022080e-01
        1 -1    0    0  501    0 +0.0000000000e+00 +0.0000000000e+00 +1.7941165808e+03 1.7941165808e+03 0.0000000000e+00 0.0000e+00 -1.0000e+00
       21 -1    0    0  502  501 +0.0000000000e+00 +0.0000000000e+00 -3.6465078697e+00 3.6465078697e+00 0.0000000000e+00 0.0000e+00 -1.0000e+00
      -24  2    1    2    0    0 +2.4154337459e+00 -1.4335629421e+01 +1.7736741658e+03 1.7755494197e+03 8.0276714594e+01 0.0000e+00 0.0000e+00
       13  1    3    3    0    0 +2.1108686171e+01 -3.9274016205e+01 +1.3473463050e+03 1.3480838589e+03 0.0000000000e+00 0.0000e+00 -1.0000e+00
      -14  1    3    3    0    0 -1.8693252425e+01 +2.4938386784e+01 +4.2632786077e+02 4.2746556083e+02 0.0000000000e+00 0.0000e+00 1.0000e+00
        2  1    1    2  502    0 -2.4154337459e+00 +1.4335629421e+01 +1.6795907120e+01 2.2213668923e+01 0.0000000000e+00 0.0000e+00 -1.0000e+00
#aMCatNLO 2  0  0  2  1 0.14643685E+02 0.00000000E+00 -9  5  0 0.00000000E+00 0.00000000E+00 0.00000000E+00 0.00000000E+00 0.00000000E+00
<rwgt>
<wgt id='1001'> +7.4519530e+04 </wgt>
<wgt id='1002'> +6.7355721e+04 </wgt>
<wgt id='1003'> +8.3440951e+04 </wgt>
<wgt id='1004'> +7.7909658e+04 </wgt>
<wgt id='1005'> +7.0419961e+04 </wgt>
<wgt id='1006'> +8.7236963e+04 </wgt>
<wgt id='1007'> +6.9545826e+04 </wgt>
<wgt id='1008'> +6.2860171e+04 </wgt>
<wgt id='1009'> +7.7871818e+04 </wgt>
<wgt id='1010'> +7.4519530e+04 </wgt>
<wgt id='1011'> +7.4679663e+04 </wgt>
<wgt id='1012'> +7.4142811e+04 </wgt>
<wgt id='1013'> +7.4856734e+04 </wgt>
<wgt id='1014'> +7.3892393e+04 </wgt>
<wgt id='1015'> +7.5085768e+04 </wgt>
<wgt id='1016'> +7.3860126e+04 </wgt>
<wgt id='1017'> +7.3900079e+04 </wgt>
<wgt id='1018'> +7.4237222e+04 </wgt>
<wgt id='1019'> +7.4538390e+04 </wgt>
<wgt id='1020'> +7.5138759e+04 </wgt>
<wgt id='1021'> +7.4624052e+04 </wgt>
<wgt id='1022'> +7.4736803e+04 </wgt>
<wgt id='1023'> +7.4555061e+04 </wgt>
<wgt id='1024'> +7.4075115e+04 </wgt>
<wgt id='1025'> +7.4422648e+04 </wgt>
<wgt id='1026'> +7.4457340e+04 </wgt>
<wgt id='1027'> +7.4114812e+04 </wgt>
<wgt id='1028'> +7.4834867e+04 </wgt>
<wgt id='1029'> +7.4474845e+04 </wgt>
<wgt id='1030'> +7.4605267e+04 </wgt>
<wgt id='1031'> +7.4666541e+04 </wgt>
<wgt id='1032'> +7.4698030e+04 </wgt>
<wgt id='1033'> +7.4162942e+04 </wgt>
<wgt id='1034'> +7.4948598e+04 </wgt>
<wgt id='1035'> +7.3836310e+04 </wgt>
<wgt id='1036'> +7.4731009e+04 </wgt>
<wgt id='1037'> +7.4749161e+04 </wgt>
<wgt id='1038'> +7.5290251e+04 </wgt>
<wgt id='1039'> +7.4973847e+04 </wgt>
<wgt id='1040'> +7.4056990e+04 </wgt>
<wgt id='1041'> +7.4962074e+04 </wgt>
<wgt id='1042'> +7.4642594e+04 </wgt>
<wgt id='1043'> +7.4246698e+04 </wgt>
<wgt id='1044'> +7.4691184e+04 </wgt>
<wgt id='1045'> +7.4729906e+04 </wgt>
<wgt id='1046'> +7.3682014e+04 </wgt>
<wgt id='1047'> +7.4427260e+04 </wgt>
<wgt id='1048'> +7.4161986e+04 </wgt>
<wgt id='1049'> +7.4719530e+04 </wgt>
<wgt id='1050'> +7.4726500e+04 </wgt>
<wgt id='1051'> +7.4575911e+04 </wgt>
<wgt id='1052'> +7.3828812e+04 </wgt>
<wgt id='1053'> +7.4356826e+04 </wgt>
<wgt id='1054'> +7.4188332e+04 </wgt>
<wgt id='1055'> +7.4241717e+04 </wgt>
<wgt id='1056'> +7.4604001e+04 </wgt>
<wgt id='1057'> +7.4635549e+04 </wgt>
<wgt id='1058'> +7.4571820e+04 </wgt>
<wgt id='1059'> +7.5235447e+04 </wgt>
<wgt id='1060'> +7.4527803e+04 </wgt>
<wgt id='1061'> +7.4344339e+04 </wgt>
<wgt id='1062'> +7.4484410e+04 </wgt>
<wgt id='1063'> +7.4664718e+04 </wgt>
<wgt id='1064'> +7.4565436e+04 </wgt>
<wgt id='1065'> +7.4281522e+04 </wgt>
<wgt id='1066'> +7.4472426e+04 </wgt>
<wgt id='1067'> +7.4259251e+04 </wgt>
<wgt id='1068'> +7.4769060e+04 </wgt>
<wgt id='1069'> +7.4613551e+04 </wgt>
<wgt id='1070'> +7.4346730e+04 </wgt>
<wgt id='1071'> +7.4604569e+04 </wgt>
<wgt id='1072'> +7.4547787e+04 </wgt>
<wgt id='1073'> +7.4322600e+04 </wgt>
<wgt id='1074'> +7.4464287e+04 </wgt>
<wgt id='1075'> +7.4552395e+04 </wgt>
<wgt id='1076'> +7.4635308e+04 </wgt>
<wgt id='1077'> +7.4555572e+04 </wgt>
<wgt id='1078'> +7.4544668e+04 </wgt>
<wgt id='1079'> +7.4353206e+04 </wgt>
<wgt id='1080'> +7.4353862e+04 </wgt>
<wgt id='1081'> +7.4507880e+04 </wgt>
<wgt id='1082'> +7.4550862e+04 </wgt>
<wgt id='1083'> +7.4866132e+04 </wgt>
<wgt id='1084'> +7.4776907e+04 </wgt>
<wgt id='1085'> +7.4353039e+04 </wgt>
<wgt id='1086'> +7.4657946e+04 </wgt>
<wgt id='1087'> +7.4559988e+04 </wgt>
<wgt id='1088'> +7.4636430e+04 </wgt>
<wgt id='1089'> +7.4732469e+04 </wgt>
<wgt id='1090'> +7.4460452e+04 </wgt>
<wgt id='1091'> +7.4579884e+04 </wgt>
<wgt id='1092'> +7.4510461e+04 </wgt>
<wgt id='1093'> +7.4627992e+04 </wgt>
<wgt id='1094'> +7.4492937e+04 </wgt>
<wgt id='1095'> +7.4415138e+04 </wgt>
<wgt id='1096'> +7.4569625e+04 </wgt>
<wgt id='1097'> +7.4513068e+04 </wgt>
<wgt id='1098'> +7.4610274e+04 </wgt>
<wgt id='1099'> +7.4348734e+04 </wgt>
<wgt id='1100'> +7.4590822e+04 </wgt>
<wgt id='1101'> +7.4406430e+04 </wgt>
<wgt id='1102'> +7.4501485e+04 </wgt>
<wgt id='1103'> +7.4518805e+04 </wgt>
<wgt id='1104'> +7.4562377e+04 </wgt>
<wgt id='1105'> +7.4431136e+04 </wgt>
<wgt id='1106'> +7.4587898e+04 </wgt>
<wgt id='1107'> +7.4633532e+04 </wgt>
<wgt id='1108'> +7.4542738e+04 </wgt>
<wgt id='1109'> +7.4573137e+04 </wgt>
<wgt id='1110'> +7.4519512e+04 </wgt>
<wgt id='1111'> +7.3911952e+04 </wgt>
<wgt id='1112'> +7.5099105e+04 </wgt>
<wgt id='1113'> +7.4519512e+04 </wgt>
<wgt id='1114'> +7.6249416e+04 </wgt>
<wgt id='1115'> +7.6416095e+04 </wgt>
<wgt id='1116'> +7.1886256e+04 </wgt>
<wgt id='1117'> +7.7608588e+04 </wgt>
<wgt id='1118'> +7.6004095e+04 </wgt>
<wgt id='1119'> +7.2587100e+04 </wgt>
<wgt id='1120'> +7.6377770e+04 </wgt>
<wgt id='1121'> +7.4972599e+04 </wgt>
<wgt id='1122'> +7.5850672e+04 </wgt>
<wgt id='1123'> +7.0149141e+04 </wgt>
<wgt id='1124'> +7.1410887e+04 </wgt>
<wgt id='1125'> +7.8243398e+04 </wgt>
<wgt id='1126'> +7.1683344e+04 </wgt>
<wgt id='1127'> +7.6041400e+04 </wgt>
<wgt id='1128'> +7.4177772e+04 </wgt>
<wgt id='1129'> +7.6163251e+04 </wgt>
<wgt id='1130'> +7.2536578e+04 </wgt>
<wgt id='1131'> +7.6463766e+04 </wgt>
<wgt id='1132'> +7.7595428e+04 </wgt>
<wgt id='1133'> +7.5055147e+04 </wgt>
<wgt id='1134'> +7.6997976e+04 </wgt>
<wgt id='1135'> +7.6195794e+04 </wgt>
<wgt id='1136'> +8.0152871e+04 </wgt>
<wgt id='1137'> +7.6651776e+04 </wgt>
<wgt id='1138'> +7.8587858e+04 </wgt>
<wgt id='1139'> +7.7259555e+04 </wgt>
<wgt id='1140'> +7.3993855e+04 </wgt>
<wgt id='1141'> +7.4735539e+04 </wgt>
<wgt id='1142'> +7.4221961e+04 </wgt>
<wgt id='1143'> +6.7754351e+04 </wgt>
<wgt id='1144'> +7.0261107e+04 </wgt>
<wgt id='1145'> +7.3550733e+04 </wgt>
<wgt id='1146'> +7.5561491e+04 </wgt>
<wgt id='1147'> +7.2544829e+04 </wgt>
<wgt id='1148'> +6.9506078e+04 </wgt>
<wgt id='1149'> +7.2679286e+04 </wgt>
<wgt id='1150'> +7.4911929e+04 </wgt>
<wgt id='1151'> +7.0120060e+04 </wgt>
<wgt id='1152'> +6.8201322e+04 </wgt>
<wgt id='1153'> +7.1891669e+04 </wgt>
<wgt id='1154'> +7.5290369e+04 </wgt>
<wgt id='1155'> +7.7229862e+04 </wgt>
<wgt id='1156'> +7.4708672e+04 </wgt>
<wgt id='1157'> +7.2581077e+04 </wgt>
<wgt id='1158'> +7.5071148e+04 </wgt>
<wgt id='1159'> +7.3579244e+04 </wgt>
<wgt id='1160'> +7.4963685e+04 </wgt>
<wgt id='1161'> +7.7024796e+04 </wgt>
<wgt id='1162'> +7.4909605e+04 </wgt>
<wgt id='1163'> +7.3938879e+04 </wgt>
<wgt id='1164'> +7.5241541e+04 </wgt>
<wgt id='1165'> +8.0077457e+04 </wgt>
<wgt id='1166'> +7.1911853e+04 </wgt>
<wgt id='1167'> +7.9158612e+04 </wgt>
<wgt id='1168'> +7.0218676e+04 </wgt>
<wgt id='1169'> +7.5535973e+04 </wgt>
<wgt id='1170'> +7.7196608e+04 </wgt>
<wgt id='1171'> +7.3312965e+04 </wgt>
<wgt id='1172'> +7.3604434e+04 </wgt>
<wgt id='1173'> +7.9573960e+04 </wgt>
<wgt id='1174'> +7.4450177e+04 </wgt>
<wgt id='1175'> +7.7352713e+04 </wgt>
<wgt id='1176'> +7.2582047e+04 </wgt>
<wgt id='1177'> +7.2832571e+04 </wgt>
<wgt id='1178'> +7.7226404e+04 </wgt>
<wgt id='1179'> +7.4874015e+04 </wgt>
<wgt id='1180'> +7.8761766e+04 </wgt>
<wgt id='1181'> +7.6393976e+04 </wgt>
<wgt id='1182'> +7.5358820e+04 </wgt>
<wgt id='1183'> +7.3042891e+04 </wgt>
<wgt id='1184'> +7.3979937e+04 </wgt>
<wgt id='1185'> +7.4093272e+04 </wgt>
<wgt id='1186'> +7.7062201e+04 </wgt>
<wgt id='1187'> +7.5923903e+04 </wgt>
<wgt id='1188'> +7.1807513e+04 </wgt>
<wgt id='1189'> +7.1817757e+04 </wgt>
<wgt id='1190'> +7.1555587e+04 </wgt>
<wgt id='1191'> +7.6577062e+04 </wgt>
<wgt id='1192'> +7.6436292e+04 </wgt>
<wgt id='1193'> +6.4921428e+04 </wgt>
<wgt id='1194'> +7.5164571e+04 </wgt>
<wgt id='1195'> +7.6163251e+04 </wgt>
<wgt id='1196'> +7.0363733e+04 </wgt>
<wgt id='1197'> +7.5634628e+04 </wgt>
<wgt id='1198'> +7.4261259e+04 </wgt>
<wgt id='1199'> +7.3392145e+04 </wgt>
<wgt id='1200'> +7.4580554e+04 </wgt>
<wgt id='1201'> +6.8071588e+04 </wgt>
<wgt id='1202'> +7.2290459e+04 </wgt>
<wgt id='1203'> +7.1273632e+04 </wgt>
<wgt id='1204'> +7.2868786e+04 </wgt>
<wgt id='1205'> +7.3219865e+04 </wgt>
<wgt id='1206'> +7.6324915e+04 </wgt>
<wgt id='1207'> +7.8408674e+04 </wgt>
<wgt id='1208'> +7.6489475e+04 </wgt>
<wgt id='1209'> +7.3821638e+04 </wgt>
<wgt id='1210'> +7.6669241e+04 </wgt>
<wgt id='1211'> +7.1819708e+04 </wgt>
<wgt id='1212'> +7.9323154e+04 </wgt>
<wgt id='1213'> +7.6488134e+04 </wgt>
<wgt id='1214'> +7.4537267e+04 </wgt>
<wgt id='1215'> +7.0893425e+04 </wgt>
<wgt id='1216'> +7.1283903e+04 </wgt>
<wgt id='1217'> +7.2077089e+04 </wgt>
<wgt id='1218'> +7.2973651e+04 </wgt>
<wgt id='1219'> +7.4138185e+04 </wgt>
<wgt id='1220'> +7.4844429e+04 </wgt>
<wgt id='1221'> +7.5677337e+04 </wgt>
<wgt id='1222'> +7.5826757e+04 </wgt>
<wgt id='1223'> +7.2699243e+04 </wgt>
<wgt id='1224'> +7.2833049e+04 </wgt>
<wgt id='1225'> +7.2528839e+04 </wgt>
<wgt id='1226'> +7.2675338e+04 </wgt>
<wgt id='1227'> +7.2141157e+04 </wgt>
<wgt id='1228'> +7.2436326e+04 </wgt>
<wgt id='1229'> +7.2895734e+04 </wgt>
<wgt id='1230'> +7.2561089e+04 </wgt>
<wgt id='1231'> +7.2783875e+04 </wgt>
<wgt id='1232'> +7.2534295e+04 </wgt>
<wgt id='1233'> +7.3002204e+04 </wgt>
<wgt id='1234'> +7.2657521e+04 </wgt>
<wgt id='1235'> +7.2469479e+04 </wgt>
<wgt id='1236'> +7.2725646e+04 </wgt>
<wgt id='1237'> +7.2683308e+04 </wgt>
<wgt id='1238'> +7.2627840e+04 </wgt>
<wgt id='1239'> +7.3039154e+04 </wgt>
<wgt id='1240'> +7.2498363e+04 </wgt>
<wgt id='1241'> +7.2430684e+04 </wgt>
<wgt id='1242'> +7.2406513e+04 </wgt>
<wgt id='1243'> +7.2577021e+04 </wgt>
<wgt id='1244'> +7.2841035e+04 </wgt>
<wgt id='1245'> +7.2707055e+04 </wgt>
<wgt id='1246'> +7.2684999e+04 </wgt>
<wgt id='1247'> +7.2951228e+04 </wgt>
<wgt id='1248'> +7.2658242e+04 </wgt>
<wgt id='1249'> +7.2653457e+04 </wgt>
<wgt id='1250'> +7.2509522e+04 </wgt>
<wgt id='1251'> +7.2926090e+04 </wgt>
<wgt id='1252'> +7.2971135e+04 </wgt>
<wgt id='1253'> +7.1704893e+04 </wgt>
<wgt id='1254'> +7.2405332e+04 </wgt>
<wgt id='1255'> +7.2861147e+04 </wgt>
<wgt id='1256'> +7.2887310e+04 </wgt>
<wgt id='1257'> +7.2487300e+04 </wgt>
<wgt id='1258'> +7.2893467e+04 </wgt>
<wgt id='1259'> +7.2403900e+04 </wgt>
<wgt id='1260'> +7.3062591e+04 </wgt>
<wgt id='1261'> +7.2215961e+04 </wgt>
<wgt id='1262'> +7.2605565e+04 </wgt>
<wgt id='1263'> +7.2260955e+04 </wgt>
<wgt id='1264'> +7.2921159e+04 </wgt>
<wgt id='1265'> +7.2661089e+04 </wgt>
<wgt id='1266'> +7.2666479e+04 </wgt>
<wgt id='1267'> +7.2918132e+04 </wgt>
<wgt id='1268'> +7.2981396e+04 </wgt>
<wgt id='1269'> +7.2722392e+04 </wgt>
<wgt id='1270'> +7.2642952e+04 </wgt>
<wgt id='1271'> +7.3003265e+04 </wgt>
<wgt id='1272'> +7.2680786e+04 </wgt>
<wgt id='1273'> +7.2647575e+04 </wgt>
<wgt id='1274'> +7.2889479e+04 </wgt>
<wgt id='1275'> +7.2561984e+04 </wgt>
<wgt id='1276'> +7.3315912e+04 </wgt>
<wgt id='1277'> +7.2964365e+04 </wgt>
<wgt id='1278'> +7.2810261e+04 </wgt>
<wgt id='1279'> +7.3222119e+04 </wgt>
<wgt id='1280'> +7.2539164e+04 </wgt>
<wgt id='1281'> +7.2533069e+04 </wgt>
<wgt id='1282'> +7.2365502e+04 </wgt>
<wgt id='1283'> +7.2532261e+04 </wgt>
<wgt id='1284'> +7.2626593e+04 </wgt>
<wgt id='1285'> +7.3182934e+04 </wgt>
<wgt id='1286'> +7.2413548e+04 </wgt>
<wgt id='1287'> +7.2416743e+04 </wgt>
<wgt id='1288'> +7.2919114e+04 </wgt>
<wgt id='1289'> +7.3188538e+04 </wgt>
<wgt id='1290'> +7.2910700e+04 </wgt>
<wgt id='1291'> +7.2941046e+04 </wgt>
<wgt id='1292'> +7.2725544e+04 </wgt>
<wgt id='1293'> +7.2922971e+04 </wgt>
<wgt id='1294'> +7.2767173e+04 </wgt>
<wgt id='1295'> +7.2609943e+04 </wgt>
<wgt id='1296'> +7.2828606e+04 </wgt>
<wgt id='1297'> +7.2753149e+04 </wgt>
<wgt id='1298'> +7.2430290e+04 </wgt>
<wgt id='1299'> +7.2890255e+04 </wgt>
<wgt id='1300'> +7.2725086e+04 </wgt>
<wgt id='1301'> +7.2848437e+04 </wgt>
<wgt id='1302'> +7.2820265e+04 </wgt>
<wgt id='1303'> +7.2786004e+04 </wgt>
<wgt id='1304'> +7.2604267e+04 </wgt>
<wgt id='1305'> +7.2345803e+04 </wgt>
<wgt id='1306'> +7.2450692e+04 </wgt>
<wgt id='1307'> +7.2776719e+04 </wgt>
<wgt id='1308'> +7.2387804e+04 </wgt>
<wgt id='1309'> +7.2795580e+04 </wgt>
<wgt id='1310'> +7.2682387e+04 </wgt>
<wgt id='1311'> +7.2518996e+04 </wgt>
<wgt id='1312'> +7.2675414e+04 </wgt>
<wgt id='1313'> +7.2723046e+04 </wgt>
<wgt id='1314'> +7.2855115e+04 </wgt>
<wgt id='1315'> +7.2436416e+04 </wgt>
<wgt id='1316'> +7.2613915e+04 </wgt>
<wgt id='1317'> +7.2666229e+04 </wgt>
<wgt id='1318'> +7.2628540e+04 </wgt>
<wgt id='1319'> +7.2577078e+04 </wgt>
<wgt id='1320'> +7.2555606e+04 </wgt>
<wgt id='1321'> +7.2768099e+04 </wgt>
<wgt id='1322'> +7.2888685e+04 </wgt>
<wgt id='1323'> +7.2734207e+04 </wgt>
<wgt id='1324'> +7.2271295e+04 </wgt>
<wgt id='1325'> +7.4016200e+04 </wgt>
<wgt id='1326'> +7.0921182e+04 </wgt>
<wgt id='1327'> +7.1784138e+04 </wgt>
<wgt id='1328'> +7.2377131e+04 </wgt>
<wgt id='1329'> +7.1151713e+04 </wgt>
<wgt id='1330'> +7.2129476e+04 </wgt>
<wgt id='1331'> +7.3254547e+04 </wgt>
<wgt id='1332'> +7.0321492e+04 </wgt>
<wgt id='1333'> +7.5935367e+04 </wgt>
<wgt id='1334'> +7.2945262e+04 </wgt>
<wgt id='1335'> +7.1205664e+04 </wgt>
<wgt id='1336'> +7.4805622e+04 </wgt>
<wgt id='1337'> +7.2315281e+04 </wgt>
<wgt id='1338'> +7.2526438e+04 </wgt>
<wgt id='1339'> +7.2359866e+04 </wgt>
<wgt id='1340'> +7.1235111e+04 </wgt>
<wgt id='1341'> +7.0481130e+04 </wgt>
<wgt id='1342'> +7.4717524e+04 </wgt>
<wgt id='1343'> +7.2858213e+04 </wgt>
<wgt id='1344'> +7.1904103e+04 </wgt>
<wgt id='1345'> +7.4656562e+04 </wgt>
<wgt id='1346'> +7.2271766e+04 </wgt>
<wgt id='1347'> +7.4956083e+04 </wgt>
<wgt id='1348'> +7.1884194e+04 </wgt>
<wgt id='1349'> +7.3721198e+04 </wgt>
<wgt id='1350'> +6.9623690e+04 </wgt>
<wgt id='1351'> +7.3759265e+04 </wgt>
<wgt id='1352'> +6.9102452e+04 </wgt>
<wgt id='1353'> +7.1002294e+04 </wgt>
<wgt id='1354'> +6.8116318e+04 </wgt>
<wgt id='1355'> +7.1358710e+04 </wgt>
<wgt id='1356'> +7.5183677e+04 </wgt>
<wgt id='1357'> +7.2070147e+04 </wgt>
<wgt id='1358'> +7.0189298e+04 </wgt>
<wgt id='1359'> +7.3145541e+04 </wgt>
<wgt id='1360'> +7.2475727e+04 </wgt>
<wgt id='1361'> +7.3252438e+04 </wgt>
<wgt id='1362'> +7.4650701e+04 </wgt>
<wgt id='1363'> +7.2060481e+04 </wgt>
<wgt id='1364'> +7.4353890e+04 </wgt>
<wgt id='1365'> +7.1121429e+04 </wgt>
<wgt id='1366'> +7.1819333e+04 </wgt>
<wgt id='1367'> +7.4454712e+04 </wgt>
<wgt id='1368'> +6.9188641e+04 </wgt>
<wgt id='1369'> +7.5224359e+04 </wgt>
<wgt id='1370'> +6.8427278e+04 </wgt>
<wgt id='1371'> +7.1322117e+04 </wgt>
<wgt id='1372'> +6.9745588e+04 </wgt>
<wgt id='1373'> +7.1809579e+04 </wgt>
<wgt id='1374'> +7.2176614e+04 </wgt>
<wgt id='1375'> +7.1935988e+04 </wgt>
<wgt id='1376'> +7.5061672e+04 </wgt>
<wgt id='1377'> +7.3200828e+04 </wgt>
<wgt id='1378'> +6.9904801e+04 </wgt>
<wgt id='1379'> +7.1214206e+04 </wgt>
<wgt id='1380'> +7.1320732e+04 </wgt>
<wgt id='1381'> +7.4461476e+04 </wgt>
<wgt id='1382'> +7.2494487e+04 </wgt>
<wgt id='1383'> +6.7061297e+04 </wgt>
<wgt id='1384'> +7.3200544e+04 </wgt>
<wgt id='1385'> +7.0117982e+04 </wgt>
<wgt id='1386'> +7.2262617e+04 </wgt>
<wgt id='1387'> +7.3127162e+04 </wgt>
<wgt id='1388'> +7.4498705e+04 </wgt>
<wgt id='1389'> +7.2326965e+04 </wgt>
<wgt id='1390'> +7.3811799e+04 </wgt>
<wgt id='1391'> +7.2909572e+04 </wgt>
<wgt id='1392'> +7.0222305e+04 </wgt>
<wgt id='1393'> +7.0907769e+04 </wgt>
<wgt id='1394'> +7.1121429e+04 </wgt>
<wgt id='1395'> +7.0768803e+04 </wgt>
<wgt id='1396'> +7.3266231e+04 </wgt>
<wgt id='1397'> +7.0783415e+04 </wgt>
<wgt id='1398'> +7.1959493e+04 </wgt>
<wgt id='1399'> +7.4413321e+04 </wgt>
<wgt id='1400'> +7.2398455e+04 </wgt>
<wgt id='1401'> +7.2663197e+04 </wgt>
<wgt id='1402'> +7.1665906e+04 </wgt>
<wgt id='1403'> +7.1557330e+04 </wgt>
<wgt id='1404'> +7.1244917e+04 </wgt>
<wgt id='1405'> +7.5052968e+04 </wgt>
<wgt id='1406'> +7.3160481e+04 </wgt>
<wgt id='1407'> +7.3979154e+04 </wgt>
<wgt id='1408'> +7.4280864e+04 </wgt>
<wgt id='1409'> +7.2444642e+04 </wgt>
<wgt id='1410'> +7.3686262e+04 </wgt>
<wgt id='1411'> +7.2713851e+04 </wgt>
<wgt id='1412'> +7.2224463e+04 </wgt>
<wgt id='1413'> +7.2635185e+04 </wgt>
<wgt id='1414'> +7.2767039e+04 </wgt>
<wgt id='1415'> +7.2800128e+04 </wgt>
<wgt id='1416'> +7.5661353e+04 </wgt>
<wgt id='1417'> +7.0140063e+04 </wgt>
<wgt id='1418'> +6.9830449e+04 </wgt>
<wgt id='1419'> +7.0371857e+04 </wgt>
<wgt id='1420'> +7.4332054e+04 </wgt>
<wgt id='1421'> +7.1261108e+04 </wgt>
<wgt id='1422'> +7.2938526e+04 </wgt>
<wgt id='1423'> +7.4066641e+04 </wgt>
<wgt id='1424'> +7.2614055e+04 </wgt>
<wgt id='1425'> +7.5081558e+04 </wgt>
<wgt id='1426'> +7.1216761e+04 </wgt>
<wgt id='1427'> +7.4032968e+04 </wgt>
<wgt id='1428'> +7.4971159e+04 </wgt>
<wgt id='1429'> +7.2534070e+04 </wgt>
<wgt id='1430'> +7.2265852e+04 </wgt>
<wgt id='1431'> +7.2218161e+04 </wgt>
<wgt id='1432'> +7.2241715e+04 </wgt>
<wgt id='1433'> +7.2390838e+04 </wgt>
<wgt id='1434'> +7.2275225e+04 </wgt>
<wgt id='1435'> +7.2175480e+04 </wgt>
<wgt id='1436'> +7.1980693e+04 </wgt>
<wgt id='1437'> +7.2357242e+04 </wgt>
<wgt id='1438'> +7.2234849e+04 </wgt>
<wgt id='1439'> +7.2249672e+04 </wgt>
<wgt id='1440'> +7.2376305e+04 </wgt>
<wgt id='1441'> +7.2533552e+04 </wgt>
<wgt id='1442'> +7.1901798e+04 </wgt>
<wgt id='1443'> +7.2232519e+04 </wgt>
<wgt id='1444'> +7.1871205e+04 </wgt>
<wgt id='1445'> +7.1780676e+04 </wgt>
<wgt id='1446'> +7.2483911e+04 </wgt>
<wgt id='1447'> +7.2224130e+04 </wgt>
<wgt id='1448'> +7.2400835e+04 </wgt>
<wgt id='1449'> +7.2048574e+04 </wgt>
<wgt id='1450'> +7.1877328e+04 </wgt>
<wgt id='1451'> +7.2449313e+04 </wgt>
<wgt id='1452'> +7.3016441e+04 </wgt>
<wgt id='1453'> +7.2136718e+04 </wgt>
<wgt id='1454'> +7.2167614e+04 </wgt>
<wgt id='1455'> +7.3055479e+04 </wgt>
<wgt id='1456'> +7.2175568e+04 </wgt>
<wgt id='1457'> +7.1833923e+04 </wgt>
<wgt id='1458'> +7.1995563e+04 </wgt>
<wgt id='1459'> +7.2062482e+04 </wgt>
<wgt id='1460'> +7.2531864e+04 </wgt>
<wgt id='1461'> +7.2402454e+04 </wgt>
<wgt id='1462'> +7.2527362e+04 </wgt>
<wgt id='1463'> +7.2364249e+04 </wgt>
<wgt id='1464'> +7.2123108e+04 </wgt>
<wgt id='1465'> +7.1804279e+04 </wgt>
<wgt id='1466'> +7.2377776e+04 </wgt>
<wgt id='1467'> +7.2286464e+04 </wgt>
<wgt id='1468'> +7.1981033e+04 </wgt>
<wgt id='1469'> +7.2293771e+04 </wgt>
<wgt id='1470'> +7.2470386e+04 </wgt>
<wgt id='1471'> +7.2493071e+04 </wgt>
<wgt id='1472'> +7.2127638e+04 </wgt>
<wgt id='1473'> +7.2237960e+04 </wgt>
<wgt id='1474'> +7.2258526e+04 </wgt>
<wgt id='1475'> +7.2144726e+04 </wgt>
<wgt id='1476'> +7.2264767e+04 </wgt>
<wgt id='1477'> +7.2247971e+04 </wgt>
<wgt id='1478'> +7.2285961e+04 </wgt>
<wgt id='1479'> +7.2031497e+04 </wgt>
<wgt id='1480'> +7.2195338e+04 </wgt>
<wgt id='1481'> +7.2191330e+04 </wgt>
<wgt id='1482'> +7.2534070e+04 </wgt>
<wgt id='1483'> +7.2265852e+04 </wgt>
<wgt id='1484'> +7.3259788e+04 </wgt>
<wgt id='1485'> +7.0782581e+04 </wgt>
<wgt id='1486'> +7.1410366e+04 </wgt>
<wgt id='1487'> +7.3128046e+04 </wgt>
<wgt id='1488'> +7.4070926e+04 </wgt>
<wgt id='1489'> +7.2060646e+04 </wgt>
<wgt id='1490'> +7.2630331e+04 </wgt>
<wgt id='1491'> +7.2384799e+04 </wgt>
<wgt id='1492'> +7.0773369e+04 </wgt>
<wgt id='1493'> +7.4709599e+04 </wgt>
<wgt id='1494'> +7.3403352e+04 </wgt>
<wgt id='1495'> +7.2086936e+04 </wgt>
<wgt id='1496'> +7.3018948e+04 </wgt>
<wgt id='1497'> +7.2639385e+04 </wgt>
<wgt id='1498'> +7.4796568e+04 </wgt>
<wgt id='1499'> +7.2850652e+04 </wgt>
<wgt id='1500'> +7.3532665e+04 </wgt>
<wgt id='1501'> +7.4394286e+04 </wgt>
<wgt id='1502'> +7.3688165e+04 </wgt>
<wgt id='1503'> +7.4436088e+04 </wgt>
<wgt id='1504'> +7.4938704e+04 </wgt>
<wgt id='1505'> +7.2614721e+04 </wgt>
<wgt id='1506'> +7.1033628e+04 </wgt>
<wgt id='1507'> +7.3080385e+04 </wgt>
<wgt id='1508'> +7.1024072e+04 </wgt>
<wgt id='1509'> +7.2894083e+04 </wgt>
<wgt id='1510'> +7.3303706e+04 </wgt>
<wgt id='1511'> +7.3551529e+04 </wgt>
<wgt id='1512'> +7.4069622e+04 </wgt>
<wgt id='1513'> +7.5648535e+04 </wgt>
<wgt id='1514'> +7.3428876e+04 </wgt>
<wgt id='1515'> +7.2320543e+04 </wgt>
<wgt id='1516'> +7.5077994e+04 </wgt>
<wgt id='1517'> +7.1120324e+04 </wgt>
<wgt id='1518'> +7.1613719e+04 </wgt>
<wgt id='1519'> +7.2819348e+04 </wgt>
<wgt id='1520'> +7.3621645e+04 </wgt>
<wgt id='1521'> +7.2993046e+04 </wgt>
<wgt id='1522'> +7.3256435e+04 </wgt>
<wgt id='1523'> +7.6459305e+04 </wgt>
<wgt id='1524'> +7.4189706e+04 </wgt>
<wgt id='1525'> +7.4180816e+04 </wgt>
<wgt id='1526'> +7.3886588e+04 </wgt>
<wgt id='1527'> +7.3983612e+04 </wgt>
<wgt id='1528'> +7.4131105e+04 </wgt>
<wgt id='1529'> +7.2679404e+04 </wgt>
<wgt id='1530'> +7.3636890e+04 </wgt>
<wgt id='1531'> +7.3258218e+04 </wgt>
<wgt id='1532'> +7.5316254e+04 </wgt>
<wgt id='1533'> +7.5070388e+04 </wgt>
<wgt id='1534'> +7.0997612e+04 </wgt>
<wgt id='1535'> +7.7079296e+04 </wgt>
<wgt id='1536'> +7.2134552e+04 </wgt>
<wgt id='1537'> +7.2502239e+04 </wgt>
<wgt id='1538'> +7.3663078e+04 </wgt>
<wgt id='1539'> +7.4388291e+04 </wgt>
<wgt id='1540'> +7.2535151e+04 </wgt>
<wgt id='1541'> +6.9409295e+04 </wgt>
<wgt id='1542'> +7.4586626e+04 </wgt>
<wgt id='1543'> +7.2490235e+04 </wgt>
<wgt id='1544'> +7.3442285e+04 </wgt>
<wgt id='1545'> +7.3657764e+04 </wgt>
<wgt id='1546'> +6.9560989e+04 </wgt>
<wgt id='1547'> +7.4048459e+04 </wgt>
<wgt id='1548'> +7.1575036e+04 </wgt>
<wgt id='1549'> +7.1415740e+04 </wgt>
<wgt id='1550'> +7.1746105e+04 </wgt>
<wgt id='1551'> +7.5924205e+04 </wgt>
<wgt id='1552'> +7.4041683e+04 </wgt>
<wgt id='1553'> +7.4267539e+04 </wgt>
<wgt id='1554'> +7.5604397e+04 </wgt>
<wgt id='1555'> +7.2855734e+04 </wgt>
<wgt id='1556'> +7.2306598e+04 </wgt>
<wgt id='1557'> +7.2984132e+04 </wgt>
<wgt id='1558'> +7.3682049e+04 </wgt>
<wgt id='1559'> +7.3967711e+04 </wgt>
<wgt id='1560'> +7.2647751e+04 </wgt>
<wgt id='1561'> +7.2693488e+04 </wgt>
<wgt id='1562'> +7.3164523e+04 </wgt>
<wgt id='1563'> +7.1874810e+04 </wgt>
<wgt id='1564'> +7.6757750e+04 </wgt>
<wgt id='1565'> +6.9895757e+04 </wgt>
<wgt id='1566'> +7.2200222e+04 </wgt>
<wgt id='1567'> +7.3476937e+04 </wgt>
<wgt id='1568'> +7.3206224e+04 </wgt>
<wgt id='1569'> +7.3199916e+04 </wgt>
<wgt id='1570'> +7.5552888e+04 </wgt>
<wgt id='1571'> +7.1295979e+04 </wgt>
<wgt id='1572'> +7.2894754e+04 </wgt>
<wgt id='1573'> +7.2475898e+04 </wgt>
<wgt id='1574'> +7.3838049e+04 </wgt>
<wgt id='1575'> +7.5173490e+04 </wgt>
<wgt id='1576'> +7.6065531e+04 </wgt>
<wgt id='1577'> +7.1522322e+04 </wgt>
<wgt id='1578'> +7.2051982e+04 </wgt>
<wgt id='1579'> +7.3754898e+04 </wgt>
<wgt id='1580'> +7.5368974e+04 </wgt>
<wgt id='1581'> +7.4870576e+04 </wgt>
<wgt id='1582'> +7.3228447e+04 </wgt>
<wgt id='1583'> +7.2218329e+04 </wgt>
<wgt id='1584'> +7.3468548e+04 </wgt>
<wgt id='1585'> +7.5440572e+04 </wgt>
<wgt id='1586'> +8.7315948e+04 </wgt>
<wgt id='1587'> +7.2456198e+04 </wgt>
<wgt id='1588'> +7.2534070e+04 </wgt>
<wgt id='1589'> +7.2110743e+04 </wgt>
<wgt id='1590'> +7.2261418e+04 </wgt>
<wgt id='1591'> +7.2265852e+04 </wgt>
<wgt id='1592'> +7.2606702e+04 </wgt>
<wgt id='1593'> +7.2070625e+04 </wgt>
<wgt id='1594'> +7.2045394e+04 </wgt>
<wgt id='1595'> +7.1334716e+04 </wgt>
<wgt id='1596'> +7.1475956e+04 </wgt>
<wgt id='1597'> +7.0950553e+04 </wgt>
<wgt id='1598'> +7.1719932e+04 </wgt>
<wgt id='1599'> +7.1794442e+04 </wgt>
<wgt id='1600'> +7.2274401e+04 </wgt>
<wgt id='1601'> +7.1674932e+04 </wgt>
<wgt id='1602'> +7.0983978e+04 </wgt>
<wgt id='1603'> +7.2802596e+04 </wgt>
<wgt id='1604'> +7.0414274e+04 </wgt>
<wgt id='1605'> +7.1084357e+04 </wgt>
<wgt id='1606'> +7.2614061e+04 </wgt>
<wgt id='1607'> +7.2909931e+04 </wgt>
<wgt id='1608'> +7.3635628e+04 </wgt>
<wgt id='1609'> +7.0200945e+04 </wgt>
<wgt id='1610'> +7.2632536e+04 </wgt>
<wgt id='1611'> +7.1392475e+04 </wgt>
<wgt id='1612'> +7.2101120e+04 </wgt>
<wgt id='1613'> +7.2337610e+04 </wgt>
<wgt id='1614'> +7.1643196e+04 </wgt>
<wgt id='1615'> +7.2648523e+04 </wgt>
<wgt id='1616'> +7.1035752e+04 </wgt>
<wgt id='1617'> +7.3544809e+04 </wgt>
<wgt id='1618'> +7.1977417e+04 </wgt>
<wgt id='1619'> +7.1820582e+04 </wgt>
<wgt id='1620'> +7.2260904e+04 </wgt>
<wgt id='1621'> +7.2032130e+04 </wgt>
<wgt id='1622'> +7.2645832e+04 </wgt>
<wgt id='1623'> +7.4374126e+04 </wgt>
<wgt id='1624'> +7.1307888e+04 </wgt>
<wgt id='1625'> +7.1931856e+04 </wgt>
<wgt id='1626'> +7.3082046e+04 </wgt>
<wgt id='1627'> +7.2191758e+04 </wgt>
<wgt id='1628'> +7.1518329e+04 </wgt>
<wgt id='1629'> +7.2569696e+04 </wgt>
<wgt id='1630'> +7.0573892e+04 </wgt>
<wgt id='1631'> +7.3010945e+04 </wgt>
<wgt id='1632'> +6.9913069e+04 </wgt>
<wgt id='1633'> +7.4233898e+04 </wgt>
<wgt id='1634'> +7.2690041e+04 </wgt>
<wgt id='1635'> +7.1961946e+04 </wgt>
<wgt id='1636'> +7.4167856e+04 </wgt>
<wgt id='1637'> +7.2017424e+04 </wgt>
<wgt id='1638'> +7.1413611e+04 </wgt>
<wgt id='1639'> +7.2088802e+04 </wgt>
<wgt id='1640'> +7.1740342e+04 </wgt>
<wgt id='1641'> +7.2978671e+04 </wgt>
<wgt id='1642'> +7.3871684e+04 </wgt>
<wgt id='1643'> +7.1284618e+04 </wgt>
<wgt id='1644'> +7.3230518e+04 </wgt>
<wgt id='1645'> +7.0886372e+04 </wgt>
<wgt id='1646'> +7.1196986e+04 </wgt>
<wgt id='1647'> +7.2740561e+04 </wgt>
<wgt id='1648'> +7.2027686e+04 </wgt>
<wgt id='1649'> +7.2633624e+04 </wgt>
<wgt id='1650'> +7.2949099e+04 </wgt>
<wgt id='1651'> +7.0981268e+04 </wgt>
<wgt id='1652'> +7.3449906e+04 </wgt>
<wgt id='1653'> +7.2774342e+04 </wgt>
<wgt id='1654'> +7.1346268e+04 </wgt>
<wgt id='1655'> +7.0620614e+04 </wgt>
<wgt id='1656'> +7.4052646e+04 </wgt>
<wgt id='1657'> +7.4036541e+04 </wgt>
<wgt id='1658'> +7.4361348e+04 </wgt>
<wgt id='1659'> +7.4194487e+04 </wgt>
<wgt id='1660'> +7.2695077e+04 </wgt>
<wgt id='1661'> +7.4704951e+04 </wgt>
<wgt id='1662'> +7.3001310e+04 </wgt>
<wgt id='1663'> +7.6195574e+04 </wgt>
<wgt id='1664'> +7.5948507e+04 </wgt>
<wgt id='1665'> +7.4235770e+04 </wgt>
<wgt id='1666'> +7.4062851e+04 </wgt>
<wgt id='1667'> +7.5685653e+04 </wgt>
<wgt id='1668'> +7.2387979e+04 </wgt>
<wgt id='1669'> +7.3670472e+04 </wgt>
<wgt id='1670'> +7.4728442e+04 </wgt>
<wgt id='1671'> +7.3349368e+04 </wgt>
<wgt id='1672'> +7.2482692e+04 </wgt>
<wgt id='1673'> +7.2115982e+04 </wgt>
<wgt id='1674'> +7.4167728e+04 </wgt>
<wgt id='1675'> +7.5145325e+04 </wgt>
<wgt id='1676'> +7.3297047e+04 </wgt>
<wgt id='1677'> +7.2575510e+04 </wgt>
<wgt id='1678'> +7.2802598e+04 </wgt>
<wgt id='1679'> +7.3577955e+04 </wgt>
<wgt id='1680'> +7.5215945e+04 </wgt>
<wgt id='1681'> +7.4798341e+04 </wgt>
<wgt id='1682'> +7.3261152e+04 </wgt>
<wgt id='1683'> +7.2745149e+04 </wgt>
<wgt id='1684'> +7.5253786e+04 </wgt>
<wgt id='1685'> +7.4721822e+04 </wgt>
<wgt id='1686'> +7.5361428e+04 </wgt>
<wgt id='1687'> +7.3638478e+04 </wgt>
<wgt id='1688'> +7.4345492e+04 </wgt>
<wgt id='1689'> +7.3645936e+04 </wgt>
<wgt id='1690'> +7.3868936e+04 </wgt>
<wgt id='1691'> +7.3301514e+04 </wgt>
<wgt id='1692'> +7.4648229e+04 </wgt>
<wgt id='1693'> +7.3078614e+04 </wgt>
<wgt id='1694'> +7.5049330e+04 </wgt>
<wgt id='1695'> +7.4029382e+04 </wgt>
<wgt id='1696'> +7.5613485e+04 </wgt>
<wgt id='1697'> +7.3576303e+04 </wgt>
<wgt id='1698'> +7.4625884e+04 </wgt>
<wgt id='1699'> +7.3916957e+04 </wgt>
<wgt id='1700'> +7.4255648e+04 </wgt>
<wgt id='1701'> +7.5221026e+04 </wgt>
<wgt id='1702'> +7.3169042e+04 </wgt>
<wgt id='1703'> +7.4394762e+04 </wgt>
<wgt id='1704'> +7.2703137e+04 </wgt>
<wgt id='1705'> +7.3027355e+04 </wgt>
<wgt id='1706'> +7.5344989e+04 </wgt>
<wgt id='1707'> +7.3460557e+04 </wgt>
<wgt id='1708'> +7.3821821e+04 </wgt>
<wgt id='1709'> +7.3060464e+04 </wgt>
<wgt id='1710'> +7.5559482e+04 </wgt>
<wgt id='1711'> +7.2634838e+04 </wgt>
<wgt id='1712'> +7.5639858e+04 </wgt>
<wgt id='1713'> +7.4576474e+04 </wgt>
<wgt id='1714'> +7.3198239e+04 </wgt>
<wgt id='1715'> +7.2317903e+04 </wgt>
<wgt id='1716'> +7.2985527e+04 </wgt>
<wgt id='1717'> +7.4840141e+04 </wgt>
<wgt id='1718'> +7.4878619e+04 </wgt>
<wgt id='1719'> +7.4790810e+04 </wgt>
<wgt id='1720'> +7.4837981e+04 </wgt>
<wgt id='1721'> +7.4842113e+04 </wgt>
<wgt id='1722'> +7.4880719e+04 </wgt>
<wgt id='1723'> +7.4773667e+04 </wgt>
<wgt id='1724'> +7.4935815e+04 </wgt>
<wgt id='1725'> +7.4762294e+04 </wgt>
<wgt id='1726'> +7.4846476e+04 </wgt>
<wgt id='1727'> +7.4833616e+04 </wgt>
<wgt id='1728'> +7.4855196e+04 </wgt>
<wgt id='1729'> +7.4825118e+04 </wgt>
<wgt id='1730'> +7.4381269e+04 </wgt>
<wgt id='1731'> +7.5167008e+04 </wgt>
<wgt id='1732'> +7.4675798e+04 </wgt>
<wgt id='1733'> +7.4675798e+04 </wgt>
<wgt id='1734'> +7.4402202e+04 </wgt>
<wgt id='1735'> +7.5136064e+04 </wgt>
<wgt id='1736'> +7.4814587e+04 </wgt>
<wgt id='1737'> +7.4872330e+04 </wgt>
<wgt id='1738'> +7.5217042e+04 </wgt>
<wgt id='1739'> +7.4251292e+04 </wgt>
<wgt id='1740'> +7.5199302e+04 </wgt>
<wgt id='1741'> +7.3978596e+04 </wgt>
<wgt id='1742'> +7.4930382e+04 </wgt>
<wgt id='1743'> +7.4742035e+04 </wgt>
<wgt id='1744'> +7.4873166e+04 </wgt>
<wgt id='1745'> +7.4750372e+04 </wgt>
<wgt id='1746'> +7.3540755e+04 </wgt>
<wgt id='1747'> +7.5586529e+04 </wgt>
<wgt id='1748'> +7.5471947e+04 </wgt>
<wgt id='1749'> +7.2929705e+04 </wgt>
<wgt id='1750'> +7.4639896e+04 </wgt>
<wgt id='1751'> +7.5056699e+04 </wgt>
<wgt id='1752'> +7.4603912e+04 </wgt>
<wgt id='1753'> +7.5163914e+04 </wgt>
<wgt id='1754'> +7.4791202e+04 </wgt>
<wgt id='1755'> +7.4863181e+04 </wgt>
<wgt id='1756'> +7.4682730e+04 </wgt>
<wgt id='1757'> +7.5166384e+04 </wgt>
<wgt id='1758'> +7.4732134e+04 </wgt>
<wgt id='1759'> +7.4773634e+04 </wgt>
<wgt id='1760'> +7.5538134e+04 </wgt>
<wgt id='1761'> +7.3974094e+04 </wgt>
<wgt id='1762'> +7.4394340e+04 </wgt>
<wgt id='1763'> +7.5967414e+04 </wgt>
<wgt id='1764'> +7.4686769e+04 </wgt>
<wgt id='1765'> +7.5490139e+04 </wgt>
<wgt id='1766'> +7.4454849e+04 </wgt>
<wgt id='1767'> +7.5311375e+04 </wgt>
<wgt id='1768'> +7.4616158e+04 </wgt>
<wgt id='1769'> +7.5056081e+04 </wgt>
<wgt id='1770'> +7.4932358e+04 </wgt>
<wgt id='1771'> +7.4770474e+04 </wgt>
<wgt id='1772'> +7.4703797e+04 </wgt>
<wgt id='1773'> +7.4768557e+04 </wgt>
<wgt id='1774'> +7.4217314e+04 </wgt>
<wgt id='1775'> +7.5181036e+04 </wgt>
<wgt id='1776'> +7.5471280e+04 </wgt>
<wgt id='1777'> +7.4468868e+04 </wgt>
<wgt id='1778'> +7.4614279e+04 </wgt>
<wgt id='1779'> +7.5060750e+04 </wgt>
<wgt id='1780'> +7.5086251e+04 </wgt>
<wgt id='1781'> +7.4729051e+04 </wgt>
<wgt id='1782'> +7.4840141e+04 </wgt>
<wgt id='1783'> +7.4808646e+04 </wgt>
<wgt id='1784'> +7.3098610e+04 </wgt>
<wgt id='1785'> +7.1608663e+04 </wgt>
<wgt id='1786'> +7.4198138e+04 </wgt>
<wgt id='1787'> +7.2891255e+04 </wgt>
<wgt id='1788'> +7.2260268e+04 </wgt>
<wgt id='1789'> +7.3053769e+04 </wgt>
<wgt id='1790'> +7.2757682e+04 </wgt>
<wgt id='1791'> +7.3113729e+04 </wgt>
<wgt id='1792'> +7.3213638e+04 </wgt>
<wgt id='1793'> +7.3261320e+04 </wgt>
<wgt id='1794'> +7.3196307e+04 </wgt>
<wgt id='1795'> +7.3203490e+04 </wgt>
<wgt id='1796'> +7.3510939e+04 </wgt>
<wgt id='1797'> +7.3334553e+04 </wgt>
<wgt id='1798'> +7.3100368e+04 </wgt>
<wgt id='1799'> +7.3632149e+04 </wgt>
<wgt id='1800'> +7.3140047e+04 </wgt>
<wgt id='1801'> +7.3503583e+04 </wgt>
<wgt id='1802'> +7.3234773e+04 </wgt>
<wgt id='1803'> +7.2608588e+04 </wgt>
<wgt id='1804'> +7.3091495e+04 </wgt>
<wgt id='1805'> +7.2712027e+04 </wgt>
<wgt id='1806'> +7.2581009e+04 </wgt>
<wgt id='1807'> +7.2984018e+04 </wgt>
<wgt id='1808'> +7.3369323e+04 </wgt>
<wgt id='1809'> +7.3000663e+04 </wgt>
<wgt id='1810'> +7.3424601e+04 </wgt>
<wgt id='1811'> +7.1907473e+04 </wgt>
<wgt id='1812'> +7.3059999e+04 </wgt>
<wgt id='1813'> +7.3246000e+04 </wgt>
<wgt id='1814'> +7.3093257e+04 </wgt>
<wgt id='1815'> +7.2984518e+04 </wgt>
<wgt id='1816'> +7.2970314e+04 </wgt>
<wgt id='1817'> +7.2822390e+04 </wgt>
<wgt id='1818'> +7.2740192e+04 </wgt>
<wgt id='1819'> +7.3057741e+04 </wgt>
<wgt id='1820'> +7.3027829e+04 </wgt>
<wgt id='1821'> +7.3140819e+04 </wgt>
<wgt id='1822'> +7.3172292e+04 </wgt>
<wgt id='1823'> +7.3057254e+04 </wgt>
<wgt id='1824'> +7.2806196e+04 </wgt>
<wgt id='1825'> +7.3351850e+04 </wgt>
<wgt id='1826'> +7.3481937e+04 </wgt>
<wgt id='1827'> +8.1218697e+04 </wgt>
<wgt id='1828'> +8.1269198e+04 </wgt>
<wgt id='1829'> +8.1255435e+04 </wgt>
<wgt id='1830'> +8.1463245e+04 </wgt>
<wgt id='1831'> +8.1061034e+04 </wgt>
<wgt id='1832'> +8.1338954e+04 </wgt>
<wgt id='1833'> +8.1185678e+04 </wgt>
<wgt id='1834'> +8.1113903e+04 </wgt>
<wgt id='1835'> +8.1404520e+04 </wgt>
<wgt id='1836'> +8.0876586e+04 </wgt>
<wgt id='1837'> +8.1636729e+04 </wgt>
<wgt id='1838'> +7.8865202e+04 </wgt>
<wgt id='1839'> +8.3674098e+04 </wgt>
<wgt id='1840'> +8.1811810e+04 </wgt>
<wgt id='1841'> +8.0723924e+04 </wgt>
<wgt id='1842'> +8.1262615e+04 </wgt>
<wgt id='1843'> +8.1578677e+04 </wgt>
<wgt id='1844'> +8.2299658e+04 </wgt>
<wgt id='1845'> +8.0216318e+04 </wgt>
<wgt id='1846'> +8.1695734e+04 </wgt>
<wgt id='1847'> +8.0729329e+04 </wgt>
<wgt id='1848'> +8.0849078e+04 </wgt>
<wgt id='1849'> +8.1575532e+04 </wgt>
<wgt id='1850'> +8.2273180e+04 </wgt>
<wgt id='1851'> +8.0292725e+04 </wgt>
<wgt id='1852'> +8.1343130e+04 </wgt>
<wgt id='1853'> +8.1252874e+04 </wgt>
<wgt id='1854'> +8.0238053e+04 </wgt>
<wgt id='1855'> +8.2426590e+04 </wgt>
<wgt id='1856'> +7.1399297e+04 </wgt>
<wgt id='1857'> +7.1391079e+04 </wgt>
<wgt id='1858'> +7.1405248e+04 </wgt>
<wgt id='1859'> +7.1399377e+04 </wgt>
<wgt id='1860'> +7.1395823e+04 </wgt>
<wgt id='1861'> +7.1295168e+04 </wgt>
<wgt id='1862'> +7.1304537e+04 </wgt>
<wgt id='1863'> +7.1238887e+04 </wgt>
<wgt id='1864'> +7.1523225e+04 </wgt>
<wgt id='1865'> +7.0952536e+04 </wgt>
<wgt id='1866'> +7.1653902e+04 </wgt>
<wgt id='1867'> +7.1514886e+04 </wgt>
<wgt id='1868'> +7.1894201e+04 </wgt>
<wgt id='1869'> +7.1456057e+04 </wgt>
<wgt id='1870'> +7.1271253e+04 </wgt>
<wgt id='1871'> +7.1690475e+04 </wgt>
<wgt id='1872'> +7.1261939e+04 </wgt>
<wgt id='1873'> +7.1357276e+04 </wgt>
<wgt id='1874'> +7.1172718e+04 </wgt>
<wgt id='1875'> +7.1461784e+04 </wgt>
<wgt id='1876'> +7.1556508e+04 </wgt>
<wgt id='1877'> +7.1475877e+04 </wgt>
<wgt id='1878'> +7.1248981e+04 </wgt>
<wgt id='1879'> +7.1836882e+04 </wgt>
<wgt id='1880'> +7.1810044e+04 </wgt>
<wgt id='1881'> +7.1588497e+04 </wgt>
<wgt id='1882'> +7.1632314e+04 </wgt>
<wgt id='1883'> +7.1512180e+04 </wgt>
<wgt id='1884'> +7.0201815e+04 </wgt>
<wgt id='1885'> +7.0580864e+04 </wgt>
<wgt id='1886'> +8.4442045e+04 </wgt>
<wgt id='1887'> +9.4762682e+04 </wgt>
<wgt id='1888'> +9.1840954e+04 </wgt>
<wgt id='1889'> +1.0751450e+05 </wgt>
</rwgt>
</event>
<event npLO=" -1 " npNLO=" 0 ">
 5      0 +7.4519530e+04 3.00000000e+01 7.55820760e-03 1.19262880e-01
        2 -1    0    0  501    0 +0.0000000000e+00 +0.0000000000e+00 +3.0073170393e+03 3.0073170393e+03 0.0000000000e+00 0.0000e+00 -1.0000e+00
       -3 -1    0    0    0  501 +0.0000000000e+00 +0.0000000000e+00 -5.1939025215e-01 5.1939025215e-01 0.0000000000e+00 0.0000e+00 1.0000e+00
       24  2    1    2    0    0 +0.0000000000e+00 +0.0000000000e+00 +3.0067976491e+03 3.0078364296e+03 7.9043561543e+01 0.0000e+00 0.0000e+00
      -13  1    3    3    0    0 +7.3074218202e+00 -1.6286267822e+01 +1.6161991963e+02 1.6260270402e+02 0.0000000000e+00 0.0000e+00 1.0000e+00
       14  1    3    3    0    0 -7.3074218202e+00 +1.6286267822e+01 +2.8451777294e+03 2.8452337255e+03 0.0000000000e+00 0.0000e+00 -1.0000e+00
#aMCatNLO 1  0  0  1  2 0.42555138E+02 0.00000000E+00 -9  5  0 0.00000000E+00 0.00000000E+00 0.00000000E+00 0.00000000E+00 0.00000000E+00
<rwgt>
<wgt id='1001'> +7.4519530e+04 </wgt>
<wgt id='1002'> +7.0851946e+04 </wgt>
<wgt id='1003'> +7.9092218e+04 </wgt>
<wgt id='1004'> +9.3492627e+04 </wgt>
<wgt id='1005'> +8.8197790e+04 </wgt>
<wgt id='1006'> +1.0009415e+05 </wgt>
<wgt id='1007'> +5.6383475e+04 </wgt>
<wgt id='1008'> +5.4213986e+04 </wgt>
<wgt id='1009'> +5.9088361e+04 </wgt>
<wgt id='1010'> +7.4519530e+04 </wgt>
<wgt id='1011'> +7.4616082e+04 </wgt>
<wgt id='1012'> +7.5791640e+04 </wgt>
<wgt id='1013'> +7.3518651e+04 </wgt>
<wgt id='1014'> +7.1484028e+04 </wgt>
<wgt id='1015'> +7.6305926e+04 </wgt>
<wgt id='1016'> +7.2514893e+04 </wgt>
<wgt id='1017'> +7.3646241e+04 </wgt>
<wgt id='1018'> +7.4762774e+04 </wgt>
<wgt id='1019'> +7.4400948e+04 </wgt>
<wgt id='1020'> +7.5213209e+04 </wgt>
<wgt id='1021'> +7.4319703e+04 </wgt>
<wgt id='1022'> +7.4009471e+04 </wgt>
<wgt id='1023'> +7.4539478e+04 </wgt>
<wgt id='1024'> +7.4076567e+04 </wgt>
<wgt id='1025'> +7.4166975e+04 </wgt>
<wgt id='1026'> +7.4435489e+04 </wgt>
<wgt id='1027'> +7.4192479e+04 </wgt>
<wgt id='1028'> +7.4322384e+04 </wgt>
<wgt id='1029'> +7.4506835e+04 </wgt>
<wgt id='1030'> +7.4333419e+04 </wgt>
<wgt id='1031'> +7.4675481e+04 </wgt>
<wgt id='1032'> +7.4771828e+04 </wgt>
<wgt id='1033'> +7.4261158e+04 </wgt>
<wgt id='1034'> +7.4897450e+04 </wgt>
<wgt id='1035'> +7.4885069e+04 </wgt>
<wgt id='1036'> +7.4543544e+04 </wgt>
<wgt id='1037'> +7.4278706e+04 </wgt>
<wgt id='1038'> +7.4564703e+04 </wgt>
<wgt id='1039'> +7.5184106e+04 </wgt>
<wgt id='1040'> +7.4667775e+04 </wgt>
<wgt id='1041'> +7.4909793e+04 </wgt>
<wgt id='1042'> +7.4734734e+04 </wgt>
<wgt id='1043'> +7.4229587e+04 </wgt>
<wgt id='1044'> +7.4820635e+04 </wgt>
<wgt id='1045'> +7.4449067e+04 </wgt>
<wgt id='1046'> +7.4158033e+04 </wgt>
<wgt id='1047'> +7.4650585e+04 </wgt>
<wgt id='1048'> +7.4005386e+04 </wgt>
<wgt id='1049'> +7.3907359e+04 </wgt>
<wgt id='1050'> +7.4664105e+04 </wgt>
<wgt id='1051'> +7.4359048e+04 </wgt>
<wgt id='1052'> +7.4182437e+04 </wgt>
<wgt id='1053'> +7.4479454e+04 </wgt>
<wgt id='1054'> +7.4778517e+04 </wgt>
<wgt id='1055'> +7.4799532e+04 </wgt>
<wgt id='1056'> +7.4697570e+04 </wgt>
<wgt id='1057'> +7.4404922e+04 </wgt>
<wgt id='1058'> +7.4499971e+04 </wgt>
<wgt id='1059'> +7.4796682e+04 </wgt>
<wgt id='1060'> +7.4235986e+04 </wgt>
<wgt id='1061'> +7.4579516e+04 </wgt>
<wgt id='1062'> +7.4440094e+04 </wgt>
<wgt id='1063'> +7.4165022e+04 </wgt>
<wgt id='1064'> +7.5001775e+04 </wgt>
<wgt id='1065'> +7.4733599e+04 </wgt>
<wgt id='1066'> +7.4592736e+04 </wgt>
<wgt id='1067'> +7.4324021e+04 </wgt>
<wgt id='1068'> +7.4744572e+04 </wgt>
<wgt id='1069'> +7.4389207e+04 </wgt>
<wgt id='1070'> +7.4432755e+04 </wgt>
<wgt id='1071'> +7.4856712e+04 </wgt>
<wgt id='1072'> +7.4660997e+04 </wgt>
<wgt id='1073'> +7.4754989e+04 </wgt>
<wgt id='1074'> +7.4990429e+04 </wgt>
<wgt id='1075'> +7.4418202e+04 </wgt>
<wgt id='1076'> +7.4663590e+04 </wgt>
<wgt id='1077'> +7.4730643e+04 </wgt>
<wgt id='1078'> +7.4711276e+04 </wgt>
<wgt id='1079'> +7.4505689e+04 </wgt>
<wgt id='1080'> +7.4507105e+04 </wgt>
<wgt id='1081'> +7.4570134e+04 </wgt>
<wgt id='1082'> +7.4343910e+04 </wgt>
<wgt id='1083'> +7.4365383e+04 </wgt>
<wgt id='1084'> +7.4554114e+04 </wgt>
<wgt id='1085'> +7.4423437e+04 </wgt>
<wgt id='1086'> +7.4560502e+04 </wgt>
<wgt id='1087'> +7.4405077e+04 </wgt>
<wgt id='1088'> +7.4476117e+04 </wgt>
<wgt id='1089'> +7.4535356e+04 </wgt>
<wgt id='1090'> +7.4566473e+04 </wgt>
<wgt id='1091'> +7.4598263e+04 </wgt>
<wgt id='1092'> +7.4482501e+04 </wgt>
<wgt id='1093'> +7.4548138e+04 </wgt>
<wgt id='1094'> +7.4542453e+04 </wgt>
<wgt id='1095'> +7.4490108e+04 </wgt>
<wgt id='1096'> +7.4533419e+04 </wgt>
<wgt id='1097'> +7.4449822e+04 </wgt>
<wgt id='1098'> +7.4497988e+04 </wgt>
<wgt id='1099'> +7.4395521e+04 </wgt>
<wgt id='1100'> +7.4612492e+04 </wgt>
<wgt id='1101'> +7.4522099e+04 </wgt>
<wgt id='1102'> +7.4574647e+04 </wgt>
<wgt id='1103'> +7.4433258e+04 </wgt>
<wgt id='1104'> +7.4594141e+04 </wgt>
<wgt id='1105'> +7.4562596e+04 </wgt>
<wgt id='1106'> +7.4504461e+04 </wgt>
<wgt id='1107'> +7.4500821e+04 </wgt>
<wgt id='1108'> +7.4540133e+04 </wgt>
<wgt id='1109'> +7.4481603e+04 </wgt>
<wgt id='1110'> +7.4519530e+04 </wgt>
<wgt id='1111'> +7.2103457e+04 </wgt>
<wgt id='1112'> +7.5294566e+04 </wgt>
<wgt id='1113'> +7.4519530e+04 </wgt>
<wgt id='1114'> +7.2346019e+04 </wgt>
<wgt id='1115'> +7.8450378e+04 </wgt>
<wgt id='1116'> +7.3028696e+04 </wgt>
<wgt id='1117'> +7.6059815e+04 </wgt>
<wgt id='1118'> +7.8741628e+04 </wgt>
<wgt id='1119'> +7.0268400e+04 </wgt>
<wgt id='1120'> +7.4301499e+04 </wgt>
<wgt id='1121'> +7.8092364e+04 </wgt>
<wgt id='1122'> +7.1348326e+04 </wgt>
<wgt id='1123'> +6.8810311e+04 </wgt>
<wgt id='1124'> +7.3287182e+04 </wgt>
<wgt id='1125'> +7.3187602e+04 </wgt>
<wgt id='1126'> +7.7353316e+04 </wgt>
<wgt id='1127'> +7.1529499e+04 </wgt>
<wgt id='1128'> +8.1681346e+04 </wgt>
<wgt id='1129'> +7.3564008e+04 </wgt>
<wgt id='1130'> +6.3741799e+04 </wgt>
<wgt id='1131'> +7.5273679e+04 </wgt>
<wgt id='1132'> +7.6009749e+04 </wgt>
<wgt id='1133'> +7.6472095e+04 </wgt>
<wgt id='1134'> +8.1897760e+04 </wgt>
<wgt id='1135'> +8.1126093e+04 </wgt>
<wgt id='1136'> +7.7082472e+04 </wgt>
<wgt id='1137'> +7.5144248e+04 </wgt>
<wgt id='1138'> +7.5921188e+04 </wgt>
<wgt id='1139'> +7.2894788e+04 </wgt>
<wgt id='1140'> +6.2520357e+04 </wgt>
<wgt id='1141'> +7.6527058e+04 </wgt>
<wgt id='1142'> +7.0779253e+04 </wgt>
<wgt id='1143'> +6.7616778e+04 </wgt>
<wgt id='1144'> +7.3573903e+04 </wgt>
<wgt id='1145'> +7.3222266e+04 </wgt>
<wgt id='1146'> +7.7522902e+04 </wgt>
<wgt id='1147'> +7.7947141e+04 </wgt>
<wgt id='1148'> +6.7090674e+04 </wgt>
<wgt id='1149'> +7.6135380e+04 </wgt>
<wgt id='1150'> +7.6407461e+04 </wgt>
<wgt id='1151'> +7.0303973e+04 </wgt>
<wgt id='1152'> +7.2614766e+04 </wgt>
<wgt id='1153'> +7.5059617e+04 </wgt>
<wgt id='1154'> +7.1961613e+04 </wgt>
<wgt id='1155'> +7.4465639e+04 </wgt>
<wgt id='1156'> +6.9710227e+04 </wgt>
<wgt id='1157'> +7.2287912e+04 </wgt>
<wgt id='1158'> +8.9445982e+04 </wgt>
<wgt id='1159'> +7.2600949e+04 </wgt>
<wgt id='1160'> +7.8594875e+04 </wgt>
<wgt id='1161'> +7.2505114e+04 </wgt>
<wgt id='1162'> +7.1700539e+04 </wgt>
<wgt id='1163'> +7.1114711e+04 </wgt>
<wgt id='1164'> +7.7727554e+04 </wgt>
<wgt id='1165'> +7.6342451e+04 </wgt>
<wgt id='1166'> +6.7446329e+04 </wgt>
<wgt id='1167'> +7.8397483e+04 </wgt>
<wgt id='1168'> +7.5955138e+04 </wgt>
<wgt id='1169'> +6.9016296e+04 </wgt>
<wgt id='1170'> +7.3715562e+04 </wgt>
<wgt id='1171'> +7.9228147e+04 </wgt>
<wgt id='1172'> +6.1965056e+04 </wgt>
<wgt id='1173'> +7.5981889e+04 </wgt>
<wgt id='1174'> +7.5954014e+04 </wgt>
<wgt id='1175'> +7.5091303e+04 </wgt>
<wgt id='1176'> +7.1515544e+04 </wgt>
<wgt id='1177'> +7.2009130e+04 </wgt>
<wgt id='1178'> +7.9295892e+04 </wgt>
<wgt id='1179'> +7.2882314e+04 </wgt>
<wgt id='1180'> +9.5521278e+04 </wgt>
<wgt id='1181'> +7.8588729e+04 </wgt>
<wgt id='1182'> +7.5624316e+04 </wgt>
<wgt id='1183'> +7.9326406e+04 </wgt>
<wgt id='1184'> +7.1233490e+04 </wgt>
<wgt id='1185'> +7.3528306e+04 </wgt>
<wgt id='1186'> +7.5276391e+04 </wgt>
<wgt id='1187'> +7.8498027e+04 </wgt>
<wgt id='1188'> +7.2049860e+04 </wgt>
<wgt id='1189'> +7.7855124e+04 </wgt>
<wgt id='1190'> +7.8036010e+04 </wgt>
<wgt id='1191'> +8.7308998e+04 </wgt>
<wgt id='1192'> +7.0900810e+04 </wgt>
<wgt id='1193'> +6.4969058e+04 </wgt>
<wgt id='1194'> +7.4458781e+04 </wgt>
<wgt id='1195'> +7.3564008e+04 </wgt>
<wgt id='1196'> +7.2833154e+04 </wgt>
<wgt id='1197'> +7.5705021e+04 </wgt>
<wgt id='1198'> +7.8675162e+04 </wgt>
<wgt id='1199'> +6.7795418e+04 </wgt>
<wgt id='1200'> +7.6332057e+04 </wgt>
<wgt id='1201'> +6.7722622e+04 </wgt>
<wgt id='1202'> +7.1915879e+04 </wgt>
<wgt id='1203'> +7.5076567e+04 </wgt>
<wgt id='1204'> +7.6549610e+04 </wgt>
<wgt id='1205'> +7.5041065e+04 </wgt>
<wgt id='1206'> +7.3955135e+04 </wgt>
<wgt id='1207'> +7.4868103e+04 </wgt>
<wgt id='1208'> +8.2231320e+04 </wgt>
<wgt id='1209'> +7.8304760e+04 </wgt>
<wgt id='1210'> +6.4797179e+04 </wgt>
<wgt id='1211'> +7.0883971e+04 </wgt>
<wgt id='1212'> +7.6188317e+04 </wgt>
<wgt id='1213'> +7.5143851e+04 </wgt>
<wgt id='1214'> +7.4268466e+04 </wgt>
<wgt id='1215'> +6.5636696e+04 </wgt>
<wgt id='1216'> +6.7110440e+04 </wgt>
<wgt id='1217'> +6.9817323e+04 </wgt>
<wgt id='1218'> +7.0960400e+04 </wgt>
<wgt id='1219'> +7.3130721e+04 </wgt>
<wgt id='1220'> +7.4344118e+04 </wgt>
<wgt id='1221'> +7.8115629e+04 </wgt>
<wgt id='1222'> +7.9785824e+04 </wgt>
<wgt id='1223'> +7.1249935e+04 </wgt>
<wgt id='1224'> +6.9892528e+04 </wgt>
<wgt id='1225'> +7.2496713e+04 </wgt>
<wgt id='1226'> +7.1123321e+04 </wgt>
<wgt id='1227'> +6.7439783e+04 </wgt>
<wgt id='1228'> +7.1111239e+04 </wgt>
<wgt id='1229'> +7.2050902e+04 </wgt>
<wgt id='1230'> +7.1314895e+04 </wgt>
<wgt id='1231'> +7.1698080e+04 </wgt>
<wgt id='1232'> +7.1203764e+04 </wgt>
<wgt id='1233'> +7.2351436e+04 </wgt>
<wgt id='1234'> +7.1346017e+04 </wgt>
<wgt id='1235'> +7.1168856e+04 </wgt>
<wgt id='1236'> +7.1132544e+04 </wgt>
<wgt id='1237'> +7.1641460e+04 </wgt>
<wgt id='1238'> +7.1035336e+04 </wgt>
<wgt id='1239'> +7.1469894e+04 </wgt>
<wgt id='1240'> +7.1221323e+04 </wgt>
<wgt id='1241'> +7.1236317e+04 </wgt>
<wgt id='1242'> +7.1195781e+04 </wgt>
<wgt id='1243'> +7.0966108e+04 </wgt>
<wgt id='1244'> +7.1350067e+04 </wgt>
<wgt id='1245'> +7.1208895e+04 </wgt>
<wgt id='1246'> +7.1438384e+04 </wgt>
<wgt id='1247'> +7.1136883e+04 </wgt>
<wgt id='1248'> +7.1257049e+04 </wgt>
<wgt id='1249'> +7.1227065e+04 </wgt>
<wgt id='1250'> +7.1264666e+04 </wgt>
<wgt id='1251'> +7.1540915e+04 </wgt>
<wgt id='1252'> +7.1748878e+04 </wgt>
<wgt id='1253'> +7.0631908e+04 </wgt>
<wgt id='1254'> +7.0837397e+04 </wgt>
<wgt id='1255'> +7.1341314e+04 </wgt>
<wgt id='1256'> +7.1255473e+04 </wgt>
<wgt id='1257'> +7.1214631e+04 </wgt>
<wgt id='1258'> +7.1270173e+04 </wgt>
<wgt id='1259'> +7.1267924e+04 </wgt>
<wgt id='1260'> +7.0948181e+04 </wgt>
<wgt id='1261'> +7.1236105e+04 </wgt>
<wgt id='1262'> +7.1223725e+04 </wgt>
<wgt id='1263'> +7.1193626e+04 </wgt>
<wgt id='1264'> +7.1418884e+04 </wgt>
<wgt id='1265'> +7.1298982e+04 </wgt>
<wgt id='1266'> +7.1209158e+04 </wgt>
<wgt id='1267'> +7.1241250e+04 </wgt>
<wgt id='1268'> +7.1346076e+04 </wgt>
<wgt id='1269'> +7.1271408e+04 </wgt>
<wgt id='1270'> +7.1128063e+04 </wgt>
<wgt id='1271'> +7.1144083e+04 </wgt>
<wgt id='1272'> +7.1245849e+04 </wgt>
<wgt id='1273'> +7.1045699e+04 </wgt>
<wgt id='1274'> +7.1699972e+04 </wgt>
<wgt id='1275'> +7.1394570e+04 </wgt>
<wgt id='1276'> +7.1475134e+04 </wgt>
<wgt id='1277'> +7.1233660e+04 </wgt>
<wgt id='1278'> +7.1108090e+04 </wgt>
<wgt id='1279'> +7.1629138e+04 </wgt>
<wgt id='1280'> +7.0789353e+04 </wgt>
<wgt id='1281'> +7.1051251e+04 </wgt>
<wgt id='1282'> +7.2288750e+04 </wgt>
<wgt id='1283'> +7.0864298e+04 </wgt>
<wgt id='1284'> +7.1036168e+04 </wgt>
<wgt id='1285'> +7.1295020e+04 </wgt>
<wgt id='1286'> +7.1043107e+04 </wgt>
<wgt id='1287'> +7.1282452e+04 </wgt>
<wgt id='1288'> +7.1096617e+04 </wgt>
<wgt id='1289'> +7.0937099e+04 </wgt>
<wgt id='1290'> +7.1453275e+04 </wgt>
<wgt id='1291'> +7.1231377e+04 </wgt>
<wgt id='1292'> +7.1208108e+04 </wgt>
<wgt id='1293'> +7.1620937e+04 </wgt>
<wgt id='1294'> +7.1217066e+04 </wgt>
<wgt id='1295'> +7.1300873e+04 </wgt>
<wgt id='1296'> +7.1410313e+04 </wgt>
<wgt id='1297'> +7.1329395e+04 </wgt>
<wgt id='1298'> +7.1187725e+04 </wgt>
<wgt id='1299'> +7.1434393e+04 </wgt>
<wgt id='1300'> +7.1281693e+04 </wgt>
<wgt id='1301'> +7.1422124e+04 </wgt>
<wgt id='1302'> +7.1128916e+04 </wgt>
<wgt id='1303'> +7.1017428e+04 </wgt>
<wgt id='1304'> +7.1297094e+04 </wgt>
<wgt id='1305'> +7.1140627e+04 </wgt>
<wgt id='1306'> +7.1077387e+04 </wgt>
<wgt id='1307'> +7.1023161e+04 </wgt>
<wgt id='1308'> +7.1309021e+04 </wgt>
<wgt id='1309'> +7.1355904e+04 </wgt>
<wgt id='1310'> +7.1316190e+04 </wgt>
<wgt id='1311'> +7.1433511e+04 </wgt>
<wgt id='1312'> +7.1196875e+04 </wgt>
<wgt id='1313'> +7.1321755e+04 </wgt>
<wgt id='1314'> +7.1222790e+04 </wgt>
<wgt id='1315'> +7.1547491e+04 </wgt>
<wgt id='1316'> +7.1352936e+04 </wgt>
<wgt id='1317'> +7.1169200e+04 </wgt>
<wgt id='1318'> +7.1163257e+04 </wgt>
<wgt id='1319'> +7.1395808e+04 </wgt>
<wgt id='1320'> +7.1166857e+04 </wgt>
<wgt id='1321'> +7.1122738e+04 </wgt>
<wgt id='1322'> +7.1231322e+04 </wgt>
<wgt id='1323'> +7.1364555e+04 </wgt>
<wgt id='1324'> +6.9337861e+04 </wgt>
<wgt id='1325'> +7.2179681e+04 </wgt>
<wgt id='1326'> +7.5712552e+04 </wgt>
<wgt id='1327'> +7.5597924e+04 </wgt>
<wgt id='1328'> +7.4043566e+04 </wgt>
<wgt id='1329'> +7.4408347e+04 </wgt>
<wgt id='1330'> +7.4646593e+04 </wgt>
<wgt id='1331'> +7.4399634e+04 </wgt>
<wgt id='1332'> +7.4447570e+04 </wgt>
<wgt id='1333'> +7.5216255e+04 </wgt>
<wgt id='1334'> +7.1613893e+04 </wgt>
<wgt id='1335'> +7.2339318e+04 </wgt>
<wgt id='1336'> +7.4402407e+04 </wgt>
<wgt id='1337'> +7.3872578e+04 </wgt>
<wgt id='1338'> +7.3112257e+04 </wgt>
<wgt id='1339'> +7.3167986e+04 </wgt>
<wgt id='1340'> +7.3633859e+04 </wgt>
<wgt id='1341'> +7.4506296e+04 </wgt>
<wgt id='1342'> +7.5402615e+04 </wgt>
<wgt id='1343'> +7.4575404e+04 </wgt>
<wgt id='1344'> +7.0830153e+04 </wgt>
<wgt id='1345'> +7.5006164e+04 </wgt>
<wgt id='1346'> +7.4575896e+04 </wgt>
<wgt id='1347'> +7.5479511e+04 </wgt>
<wgt id='1348'> +7.3616583e+04 </wgt>
<wgt id='1349'> +7.5458789e+04 </wgt>
<wgt id='1350'> +7.1900563e+04 </wgt>
<wgt id='1351'> +7.4062789e+04 </wgt>
<wgt id='1352'> +7.3504010e+04 </wgt>
<wgt id='1353'> +7.2373896e+04 </wgt>
<wgt id='1354'> +7.5172693e+04 </wgt>
<wgt id='1355'> +7.4845415e+04 </wgt>
<wgt id='1356'> +7.4238764e+04 </wgt>
<wgt id='1357'> +7.4139487e+04 </wgt>
<wgt id='1358'> +7.2320424e+04 </wgt>
<wgt id='1359'> +7.5639235e+04 </wgt>
<wgt id='1360'> +7.2697699e+04 </wgt>
<wgt id='1361'> +7.6344713e+04 </wgt>
<wgt id='1362'> +7.5630675e+04 </wgt>
<wgt id='1363'> +7.2589853e+04 </wgt>
<wgt id='1364'> +7.4866572e+04 </wgt>
<wgt id='1365'> +7.1091228e+04 </wgt>
<wgt id='1366'> +7.2496893e+04 </wgt>
<wgt id='1367'> +7.3941898e+04 </wgt>
<wgt id='1368'> +7.5232261e+04 </wgt>
<wgt id='1369'> +7.1350871e+04 </wgt>
<wgt id='1370'> +7.5579625e+04 </wgt>
<wgt id='1371'> +7.2445421e+04 </wgt>
<wgt id='1372'> +7.0935341e+04 </wgt>
<wgt id='1373'> +7.2603081e+04 </wgt>
<wgt id='1374'> +7.4796063e+04 </wgt>
<wgt id='1375'> +7.2696767e+04 </wgt>
<wgt id='1376'> +7.6209441e+04 </wgt>
<wgt id='1377'> +7.2191110e+04 </wgt>
<wgt id='1378'> +7.3894140e+04 </wgt>
<wgt id='1379'> +7.6669922e+04 </wgt>
<wgt id='1380'> +7.1900471e+04 </wgt>
<wgt id='1381'> +7.5998913e+04 </wgt>
<wgt id='1382'> +7.3217462e+04 </wgt>
<wgt id='1383'> +7.6023711e+04 </wgt>
<wgt id='1384'> +7.3785126e+04 </wgt>
<wgt id='1385'> +7.2106347e+04 </wgt>
<wgt id='1386'> +7.5819449e+04 </wgt>
<wgt id='1387'> +7.4021920e+04 </wgt>
<wgt id='1388'> +7.5912871e+04 </wgt>
<wgt id='1389'> +7.4604747e+04 </wgt>
<wgt id='1390'> +7.2016010e+04 </wgt>
<wgt id='1391'> +7.4579694e+04 </wgt>
<wgt id='1392'> +7.4956716e+04 </wgt>
<wgt id='1393'> +7.2687862e+04 </wgt>
<wgt id='1394'> +7.1091228e+04 </wgt>
<wgt id='1395'> +7.3717397e+04 </wgt>
<wgt id='1396'> +7.3910726e+04 </wgt>
<wgt id='1397'> +7.5443577e+04 </wgt>
<wgt id='1398'> +7.3013631e+04 </wgt>
<wgt id='1399'> +7.5420619e+04 </wgt>
<wgt id='1400'> +7.6701233e+04 </wgt>
<wgt id='1401'> +7.4449622e+04 </wgt>
<wgt id='1402'> +7.5437814e+04 </wgt>
<wgt id='1403'> +7.3736583e+04 </wgt>
<wgt id='1404'> +7.6423690e+04 </wgt>
<wgt id='1405'> +7.1380453e+04 </wgt>
<wgt id='1406'> +7.3251668e+04 </wgt>
<wgt id='1407'> +7.3570494e+04 </wgt>
<wgt id='1408'> +7.5924393e+04 </wgt>
<wgt id='1409'> +7.2521076e+04 </wgt>
<wgt id='1410'> +7.4995699e+04 </wgt>
<wgt id='1411'> +7.5921904e+04 </wgt>
<wgt id='1412'> +7.6584591e+04 </wgt>
<wgt id='1413'> +7.2908346e+04 </wgt>
<wgt id='1414'> +7.5885553e+04 </wgt>
<wgt id='1415'> +7.4868446e+04 </wgt>
<wgt id='1416'> +7.5413490e+04 </wgt>
<wgt id='1417'> +7.4149310e+04 </wgt>
<wgt id='1418'> +7.2344479e+04 </wgt>
<wgt id='1419'> +7.6412737e+04 </wgt>
<wgt id='1420'> +7.2776707e+04 </wgt>
<wgt id='1421'> +7.3958393e+04 </wgt>
<wgt id='1422'> +7.2265378e+04 </wgt>
<wgt id='1423'> +7.4195167e+04 </wgt>
<wgt id='1424'> +7.6412588e+04 </wgt>
<wgt id='1425'> +6.9942132e+04 </wgt>
<wgt id='1426'> +7.5031789e+04 </wgt>
<wgt id='1427'> +7.6076084e+04 </wgt>
<wgt id='1428'> +7.3091496e+04 </wgt>
<wgt id='1429'> +7.3476947e+04 </wgt>
<wgt id='1430'> +7.4413508e+04 </wgt>
<wgt id='1431'> +7.4012988e+04 </wgt>
<wgt id='1432'> +7.4862337e+04 </wgt>
<wgt id='1433'> +7.3962729e+04 </wgt>
<wgt id='1434'> +7.3689157e+04 </wgt>
<wgt id='1435'> +7.3896320e+04 </wgt>
<wgt id='1436'> +7.4316667e+04 </wgt>
<wgt id='1437'> +7.3984092e+04 </wgt>
<wgt id='1438'> +7.4035279e+04 </wgt>
<wgt id='1439'> +7.3751831e+04 </wgt>
<wgt id='1440'> +7.4074299e+04 </wgt>
<wgt id='1441'> +7.4018654e+04 </wgt>
<wgt id='1442'> +7.4035057e+04 </wgt>
<wgt id='1443'> +7.4033414e+04 </wgt>
<wgt id='1444'> +7.3730342e+04 </wgt>
<wgt id='1445'> +7.3947475e+04 </wgt>
<wgt id='1446'> +7.4159429e+04 </wgt>
<wgt id='1447'> +7.3777890e+04 </wgt>
<wgt id='1448'> +7.4122977e+04 </wgt>
<wgt id='1449'> +7.3886698e+04 </wgt>
<wgt id='1450'> +7.3504979e+04 </wgt>
<wgt id='1451'> +7.4168425e+04 </wgt>
<wgt id='1452'> +7.4241775e+04 </wgt>
<wgt id='1453'> +7.3992161e+04 </wgt>
<wgt id='1454'> +7.3959749e+04 </wgt>
<wgt id='1455'> +7.4371453e+04 </wgt>
<wgt id='1456'> +7.3618191e+04 </wgt>
<wgt id='1457'> +7.4148094e+04 </wgt>
<wgt id='1458'> +7.4430650e+04 </wgt>
<wgt id='1459'> +7.4136250e+04 </wgt>
<wgt id='1460'> +7.4089754e+04 </wgt>
<wgt id='1461'> +7.4205454e+04 </wgt>
<wgt id='1462'> +7.3848022e+04 </wgt>
<wgt id='1463'> +7.4150033e+04 </wgt>
<wgt id='1464'> +7.4220965e+04 </wgt>
<wgt id='1465'> +7.4131093e+04 </wgt>
<wgt id='1466'> +7.3859564e+04 </wgt>
<wgt id='1467'> +7.4375229e+04 </wgt>
<wgt id='1468'> +7.4325342e+04 </wgt>
<wgt id='1469'> +7.3915863e+04 </wgt>
<wgt id='1470'> +7.3760414e+04 </wgt>
<wgt id='1471'> +7.4091766e+04 </wgt>
<wgt id='1472'> +7.3961443e+04 </wgt>
<wgt id='1473'> +7.3985967e+04 </wgt>
<wgt id='1474'> +7.4144465e+04 </wgt>
<wgt id='1475'> +7.4084964e+04 </wgt>
<wgt id='1476'> +7.4132011e+04 </wgt>
<wgt id='1477'> +7.3991276e+04 </wgt>
<wgt id='1478'> +7.4137959e+04 </wgt>
<wgt id='1479'> +7.3966155e+04 </wgt>
<wgt id='1480'> +7.4053479e+04 </wgt>
<wgt id='1481'> +7.3955783e+04 </wgt>
<wgt id='1482'> +7.3476947e+04 </wgt>
<wgt id='1483'> +7.4413508e+04 </wgt>
<wgt id='1484'> +8.1005584e+04 </wgt>
<wgt id='1485'> +7.9839680e+04 </wgt>
<wgt id='1486'> +8.1371777e+04 </wgt>
<wgt id='1487'> +7.8278330e+04 </wgt>
<wgt id='1488'> +7.9100655e+04 </wgt>
<wgt id='1489'> +8.1982657e+04 </wgt>
<wgt id='1490'> +7.7588750e+04 </wgt>
<wgt id='1491'> +8.0650304e+04 </wgt>
<wgt id='1492'> +7.7805305e+04 </wgt>
<wgt id='1493'> +8.2274436e+04 </wgt>
<wgt id='1494'> +7.9778820e+04 </wgt>
<wgt id='1495'> +7.8237850e+04 </wgt>
<wgt id='1496'> +8.1120533e+04 </wgt>
<wgt id='1497'> +8.3464682e+04 </wgt>
<wgt id='1498'> +8.1869966e+04 </wgt>
<wgt id='1499'> +8.2571887e+04 </wgt>
<wgt id='1500'> +7.9750183e+04 </wgt>
<wgt id='1501'> +8.0332864e+04 </wgt>
<wgt id='1502'> +8.1188975e+04 </wgt>
<wgt id='1503'> +8.0673567e+04 </wgt>
<wgt id='1504'> +8.1203451e+04 </wgt>
<wgt id='1505'> +8.1280433e+04 </wgt>
<wgt id='1506'> +8.1895312e+04 </wgt>
<wgt id='1507'> +8.0110532e+04 </wgt>
<wgt id='1508'> +7.7490393e+04 </wgt>
<wgt id='1509'> +8.1760968e+04 </wgt>
<wgt id='1510'> +8.2810185e+04 </wgt>
<wgt id='1511'> +8.0794711e+04 </wgt>
<wgt id='1512'> +7.9709870e+04 </wgt>
<wgt id='1513'> +8.1429252e+04 </wgt>
<wgt id='1514'> +8.1066481e+04 </wgt>
<wgt id='1515'> +8.0479115e+04 </wgt>
<wgt id='1516'> +7.8840529e+04 </wgt>
<wgt id='1517'> +8.1230894e+04 </wgt>
<wgt id='1518'> +8.0546057e+04 </wgt>
<wgt id='1519'> +8.0695779e+04 </wgt>
<wgt id='1520'> +8.1890496e+04 </wgt>
<wgt id='1521'> +7.8126051e+04 </wgt>
<wgt id='1522'> +8.1500067e+04 </wgt>
<wgt id='1523'> +8.2163907e+04 </wgt>
<wgt id='1524'> +7.9915438e+04 </wgt>
<wgt id='1525'> +8.0623089e+04 </wgt>
<wgt id='1526'> +8.1540600e+04 </wgt>
<wgt id='1527'> +8.1149107e+04 </wgt>
<wgt id='1528'> +8.2593636e+04 </wgt>
<wgt id='1529'> +8.1462794e+04 </wgt>
<wgt id='1530'> +8.2080148e+04 </wgt>
<wgt id='1531'> +8.1308421e+04 </wgt>
<wgt id='1532'> +7.6010202e+04 </wgt>
<wgt id='1533'> +8.1188795e+04 </wgt>
<wgt id='1534'> +8.0850862e+04 </wgt>
<wgt id='1535'> +7.9575400e+04 </wgt>
<wgt id='1536'> +8.0562628e+04 </wgt>
<wgt id='1537'> +8.1202348e+04 </wgt>
<wgt id='1538'> +8.2719000e+04 </wgt>
<wgt id='1539'> +8.1258829e+04 </wgt>
<wgt id='1540'> +8.3631978e+04 </wgt>
<wgt id='1541'> +8.2700686e+04 </wgt>
<wgt id='1542'> +8.2385664e+04 </wgt>
<wgt id='1543'> +8.1544775e+04 </wgt>
<wgt id='1544'> +8.3144882e+04 </wgt>
<wgt id='1545'> +8.1043323e+04 </wgt>
<wgt id='1546'> +8.1678554e+04 </wgt>
<wgt id='1547'> +8.2417780e+04 </wgt>
<wgt id='1548'> +8.0229381e+04 </wgt>
<wgt id='1549'> +8.3436723e+04 </wgt>
<wgt id='1550'> +8.2105814e+04 </wgt>
<wgt id='1551'> +8.3196494e+04 </wgt>
<wgt id='1552'> +8.0285431e+04 </wgt>
<wgt id='1553'> +8.3564123e+04 </wgt>
<wgt id='1554'> +8.1430805e+04 </wgt>
<wgt id='1555'> +8.1042235e+04 </wgt>
<wgt id='1556'> +8.1337167e+04 </wgt>
<wgt id='1557'> +8.0763376e+04 </wgt>
<wgt id='1558'> +8.1102752e+04 </wgt>
<wgt id='1559'> +8.1087894e+04 </wgt>
<wgt id='1560'> +7.9996721e+04 </wgt>
<wgt id='1561'> +8.3480011e+04 </wgt>
<wgt id='1562'> +8.0876640e+04 </wgt>
<wgt id='1563'> +8.0621533e+04 </wgt>
<wgt id='1564'> +8.1052477e+04 </wgt>
<wgt id='1565'> +7.9074299e+04 </wgt>
<wgt id='1566'> +8.2536398e+04 </wgt>
<wgt id='1567'> +8.3829332e+04 </wgt>
<wgt id='1568'> +7.9949793e+04 </wgt>
<wgt id='1569'> +8.3425371e+04 </wgt>
<wgt id='1570'> +8.2739123e+04 </wgt>
<wgt id='1571'> +8.1562421e+04 </wgt>
<wgt id='1572'> +8.0111883e+04 </wgt>
<wgt id='1573'> +8.3552768e+04 </wgt>
<wgt id='1574'> +8.2334624e+04 </wgt>
<wgt id='1575'> +7.5640462e+04 </wgt>
<wgt id='1576'> +8.1523840e+04 </wgt>
<wgt id='1577'> +7.8408251e+04 </wgt>
<wgt id='1578'> +7.9993719e+04 </wgt>
<wgt id='1579'> +8.0641225e+04 </wgt>
<wgt id='1580'> +8.3031375e+04 </wgt>
<wgt id='1581'> +8.2252718e+04 </wgt>
<wgt id='1582'> +7.8654427e+04 </wgt>
<wgt id='1583'> +8.0378775e+04 </wgt>
<wgt id='1584'> +8.0046147e+04 </wgt>
<wgt id='1585'> +7.8160795e+04 </wgt>
<wgt id='1586'> +7.7764696e+04 </wgt>
<wgt id='1587'> +7.2516902e+04 </wgt>
<wgt id='1588'> +7.3476947e+04 </wgt>
<wgt id='1589'> +7.3852441e+04 </wgt>
<wgt id='1590'> +7.3898245e+04 </wgt>
<wgt id='1591'> +7.4413508e+04 </wgt>
<wgt id='1592'> +7.4898551e+04 </wgt>
<wgt id='1593'> +7.6616189e+04 </wgt>
<wgt id='1594'> +7.6028623e+04 </wgt>
<wgt id='1595'> +7.7349482e+04 </wgt>
<wgt id='1596'> +8.2021657e+04 </wgt>
<wgt id='1597'> +7.2003005e+04 </wgt>
<wgt id='1598'> +8.0687550e+04 </wgt>
<wgt id='1599'> +7.4342760e+04 </wgt>
<wgt id='1600'> +7.8602204e+04 </wgt>
<wgt id='1601'> +7.5049900e+04 </wgt>
<wgt id='1602'> +7.6512016e+04 </wgt>
<wgt id='1603'> +7.6979696e+04 </wgt>
<wgt id='1604'> +7.5353249e+04 </wgt>
<wgt id='1605'> +7.8900481e+04 </wgt>
<wgt id='1606'> +7.7168060e+04 </wgt>
<wgt id='1607'> +7.5844115e+04 </wgt>
<wgt id='1608'> +8.1146284e+04 </wgt>
<wgt id='1609'> +7.3650742e+04 </wgt>
<wgt id='1610'> +7.6771308e+04 </wgt>
<wgt id='1611'> +7.6422368e+04 </wgt>
<wgt id='1612'> +7.6507673e+04 </wgt>
<wgt id='1613'> +7.6684549e+04 </wgt>
<wgt id='1614'> +7.5818500e+04 </wgt>
<wgt id='1615'> +7.8150958e+04 </wgt>
<wgt id='1616'> +7.7855880e+04 </wgt>
<wgt id='1617'> +7.4683093e+04 </wgt>
<wgt id='1618'> +7.5996937e+04 </wgt>
<wgt id='1619'> +7.8371375e+04 </wgt>
<wgt id='1620'> +7.4539549e+04 </wgt>
<wgt id='1621'> +8.0157847e+04 </wgt>
<wgt id='1622'> +7.7059266e+04 </wgt>
<wgt id='1623'> +7.6617996e+04 </wgt>
<wgt id='1624'> +7.6252528e+04 </wgt>
<wgt id='1625'> +7.6755726e+04 </wgt>
<wgt id='1626'> +7.6153869e+04 </wgt>
<wgt id='1627'> +7.7000074e+04 </wgt>
<wgt id='1628'> +7.2317633e+04 </wgt>
<wgt id='1629'> +8.2766138e+04 </wgt>
<wgt id='1630'> +7.4107702e+04 </wgt>
<wgt id='1631'> +7.9357412e+04 </wgt>
<wgt id='1632'> +7.3896071e+04 </wgt>
<wgt id='1633'> +8.1146013e+04 </wgt>
<wgt id='1634'> +7.7850862e+04 </wgt>
<wgt id='1635'> +7.5766843e+04 </wgt>
<wgt id='1636'> +8.2229075e+04 </wgt>
<wgt id='1637'> +7.4830972e+04 </wgt>
<wgt id='1638'> +7.3503775e+04 </wgt>
<wgt id='1639'> +7.9298584e+04 </wgt>
<wgt id='1640'> +7.6403763e+04 </wgt>
<wgt id='1641'> +7.7248616e+04 </wgt>
<wgt id='1642'> +8.1621879e+04 </wgt>
<wgt id='1643'> +7.3645435e+04 </wgt>
<wgt id='1644'> +7.5304464e+04 </wgt>
<wgt id='1645'> +7.8625204e+04 </wgt>
<wgt id='1646'> +8.0897986e+04 </wgt>
<wgt id='1647'> +7.5634725e+04 </wgt>
<wgt id='1648'> +7.6640354e+04 </wgt>
<wgt id='1649'> +7.7227151e+04 </wgt>
<wgt id='1650'> +7.9677236e+04 </wgt>
<wgt id='1651'> +7.4417402e+04 </wgt>
<wgt id='1652'> +7.5726286e+04 </wgt>
<wgt id='1653'> +7.6232732e+04 </wgt>
<wgt id='1654'> +7.6905735e+04 </wgt>
<wgt id='1655'> +7.7136065e+04 </wgt>
<wgt id='1656'> +8.1117986e+04 </wgt>
<wgt id='1657'> +8.1229622e+04 </wgt>
<wgt id='1658'> +8.0693230e+04 </wgt>
<wgt id='1659'> +8.3031568e+04 </wgt>
<wgt id='1660'> +7.9422475e+04 </wgt>
<wgt id='1661'> +8.1774586e+04 </wgt>
<wgt id='1662'> +7.9947151e+04 </wgt>
<wgt id='1663'> +8.2175188e+04 </wgt>
<wgt id='1664'> +7.9697701e+04 </wgt>
<wgt id='1665'> +8.0972185e+04 </wgt>
<wgt id='1666'> +8.0990408e+04 </wgt>
<wgt id='1667'> +8.1388885e+04 </wgt>
<wgt id='1668'> +8.0963738e+04 </wgt>
<wgt id='1669'> +8.2615219e+04 </wgt>
<wgt id='1670'> +7.9459019e+04 </wgt>
<wgt id='1671'> +7.9954156e+04 </wgt>
<wgt id='1672'> +8.3245012e+04 </wgt>
<wgt id='1673'> +8.0091435e+04 </wgt>
<wgt id='1674'> +8.2013067e+04 </wgt>
<wgt id='1675'> +8.0618288e+04 </wgt>
<wgt id='1676'> +8.1907171e+04 </wgt>
<wgt id='1677'> +8.3504001e+04 </wgt>
<wgt id='1678'> +7.9154389e+04 </wgt>
<wgt id='1679'> +7.8822576e+04 </wgt>
<wgt id='1680'> +8.5004318e+04 </wgt>
<wgt id='1681'> +8.1934955e+04 </wgt>
<wgt id='1682'> +8.0009386e+04 </wgt>
<wgt id='1683'> +7.9514664e+04 </wgt>
<wgt id='1684'> +8.2971627e+04 </wgt>
<wgt id='1685'> +8.1417597e+04 </wgt>
<wgt id='1686'> +8.1340992e+04 </wgt>
<wgt id='1687'> +8.0065403e+04 </wgt>
<wgt id='1688'> +8.2719817e+04 </wgt>
<wgt id='1689'> +7.9094313e+04 </wgt>
<wgt id='1690'> +8.3781081e+04 </wgt>
<wgt id='1691'> +7.8288394e+04 </wgt>
<wgt id='1692'> +8.4686521e+04 </wgt>
<wgt id='1693'> +7.7999173e+04 </wgt>
<wgt id='1694'> +8.6733524e+04 </wgt>
<wgt id='1695'> +8.1976722e+04 </wgt>
<wgt id='1696'> +8.1545009e+04 </wgt>
<wgt id='1697'> +8.0858789e+04 </wgt>
<wgt id='1698'> +8.1758540e+04 </wgt>
<wgt id='1699'> +8.3897836e+04 </wgt>
<wgt id='1700'> +7.7496256e+04 </wgt>
<wgt id='1701'> +8.4066281e+04 </wgt>
<wgt id='1702'> +7.9309073e+04 </wgt>
<wgt id='1703'> +8.2546897e+04 </wgt>
<wgt id='1704'> +8.0536133e+04 </wgt>
<wgt id='1705'> +7.8478888e+04 </wgt>
<wgt id='1706'> +8.5123317e+04 </wgt>
<wgt id='1707'> +8.0020047e+04 </wgt>
<wgt id='1708'> +8.1942228e+04 </wgt>
<wgt id='1709'> +8.2912614e+04 </wgt>
<wgt id='1710'> +8.0486832e+04 </wgt>
<wgt id='1711'> +8.3645851e+04 </wgt>
<wgt id='1712'> +7.9406837e+04 </wgt>
<wgt id='1713'> +8.5053058e+04 </wgt>
<wgt id='1714'> +7.8449037e+04 </wgt>
<wgt id='1715'> +7.7805822e+04 </wgt>
<wgt id='1716'> +7.8464979e+04 </wgt>
<wgt id='1717'> +7.4542243e+04 </wgt>
<wgt id='1718'> +7.4509685e+04 </wgt>
<wgt id='1719'> +7.4584004e+04 </wgt>
<wgt id='1720'> +7.4410665e+04 </wgt>
<wgt id='1721'> +7.4662441e+04 </wgt>
<wgt id='1722'> +7.4727268e+04 </wgt>
<wgt id='1723'> +7.4239104e+04 </wgt>
<wgt id='1724'> +7.5058455e+04 </wgt>
<wgt id='1725'> +7.4122495e+04 </wgt>
<wgt id='1726'> +7.4922905e+04 </wgt>
<wgt id='1727'> +7.4149420e+04 </wgt>
<wgt id='1728'> +7.6644019e+04 </wgt>
<wgt id='1729'> +7.2508840e+04 </wgt>
<wgt id='1730'> +7.2399221e+04 </wgt>
<wgt id='1731'> +7.6051097e+04 </wgt>
<wgt id='1732'> +7.4668432e+04 </wgt>
<wgt id='1733'> +7.4668432e+04 </wgt>
<wgt id='1734'> +7.4069067e+04 </wgt>
<wgt id='1735'> +7.4867205e+04 </wgt>
<wgt id='1736'> +7.4914954e+04 </wgt>
<wgt id='1737'> +7.4008368e+04 </wgt>
<wgt id='1738'> +7.2729581e+04 </wgt>
<wgt id='1739'> +7.7744808e+04 </wgt>
<wgt id='1740'> +7.4767430e+04 </wgt>
<wgt id='1741'> +7.4017482e+04 </wgt>
<wgt id='1742'> +7.5372180e+04 </wgt>
<wgt id='1743'> +7.3651365e+04 </wgt>
<wgt id='1744'> +7.4624242e+04 </wgt>
<wgt id='1745'> +7.4318288e+04 </wgt>
<wgt id='1746'> +7.2200658e+04 </wgt>
<wgt id='1747'> +7.5946267e+04 </wgt>
<wgt id='1748'> +7.5176761e+04 </wgt>
<wgt id='1749'> +7.2643154e+04 </wgt>
<wgt id='1750'> +7.4395341e+04 </wgt>
<wgt id='1751'> +7.4694077e+04 </wgt>
<wgt id='1752'> +7.5188737e+04 </wgt>
<wgt id='1753'> +7.3663661e+04 </wgt>
<wgt id='1754'> +7.4553418e+04 </wgt>
<wgt id='1755'> +7.4533133e+04 </wgt>
<wgt id='1756'> +7.3617655e+04 </wgt>
<wgt id='1757'> +7.6970934e+04 </wgt>
<wgt id='1758'> +7.3347421e+04 </wgt>
<wgt id='1759'> +7.5315152e+04 </wgt>
<wgt id='1760'> +7.4389516e+04 </wgt>
<wgt id='1761'> +7.4790374e+04 </wgt>
<wgt id='1762'> +7.3874464e+04 </wgt>
<wgt id='1763'> +7.7101331e+04 </wgt>
<wgt id='1764'> +7.4532814e+04 </wgt>
<wgt id='1765'> +7.4615984e+04 </wgt>
<wgt id='1766'> +7.4637267e+04 </wgt>
<wgt id='1767'> +7.4527507e+04 </wgt>
<wgt id='1768'> +7.4179791e+04 </wgt>
<wgt id='1769'> +7.4891632e+04 </wgt>
<wgt id='1770'> +7.4684782e+04 </wgt>
<wgt id='1771'> +7.4665837e+04 </wgt>
<wgt id='1772'> +7.4317273e+04 </wgt>
<wgt id='1773'> +7.5195341e+04 </wgt>
<wgt id='1774'> +7.5423858e+04 </wgt>
<wgt id='1775'> +7.3927747e+04 </wgt>
<wgt id='1776'> +7.4513318e+04 </wgt>
<wgt id='1777'> +7.4589002e+04 </wgt>
<wgt id='1778'> +7.3437198e+04 </wgt>
<wgt id='1779'> +7.5401678e+04 </wgt>
<wgt id='1780'> +7.3856480e+04 </wgt>
<wgt id='1781'> +7.4916167e+04 </wgt>
<wgt id='1782'> +7.4542243e+04 </wgt>
<wgt id='1783'> +7.4570494e+04 </wgt>
<wgt id='1784'> +7.5269424e+04 </wgt>
<wgt id='1785'> +7.4728389e+04 </wgt>
<wgt id='1786'> +7.6553731e+04 </wgt>
<wgt id='1787'> +7.5452105e+04 </wgt>
<wgt id='1788'> +7.5782343e+04 </wgt>
<wgt id='1789'> +7.5216111e+04 </wgt>
<wgt id='1790'> +7.3672511e+04 </wgt>
<wgt id='1791'> +7.4986201e+04 </wgt>
<wgt id='1792'> +7.5859343e+04 </wgt>
<wgt id='1793'> +7.5482685e+04 </wgt>
<wgt id='1794'> +7.6457057e+04 </wgt>
<wgt id='1795'> +7.6789216e+04 </wgt>
<wgt id='1796'> +7.5315718e+04 </wgt>
<wgt id='1797'> +8.0291730e+04 </wgt>
<wgt id='1798'> +7.5216083e+04 </wgt>
<wgt id='1799'> +7.6278604e+04 </wgt>
<wgt id='1800'> +7.5354512e+04 </wgt>
<wgt id='1801'> +7.5079712e+04 </wgt>
<wgt id='1802'> +7.5218025e+04 </wgt>
<wgt id='1803'> +7.5342832e+04 </wgt>
<wgt id='1804'> +7.3737264e+04 </wgt>
<wgt id='1805'> +7.5200189e+04 </wgt>
<wgt id='1806'> +7.5195527e+04 </wgt>
<wgt id='1807'> +7.5182447e+04 </wgt>
<wgt id='1808'> +7.5038935e+04 </wgt>
<wgt id='1809'> +7.5355527e+04 </wgt>
<wgt id='1810'> +7.5383635e+04 </wgt>
<wgt id='1811'> +7.5138014e+04 </wgt>
<wgt id='1812'> +7.5232781e+04 </wgt>
<wgt id='1813'> +7.5235338e+04 </wgt>
<wgt id='1814'> +7.5198917e+04 </wgt>
<wgt id='1815'> +7.5275759e+04 </wgt>
<wgt id='1816'> +7.5265246e+04 </wgt>
<wgt id='1817'> +7.5179470e+04 </wgt>
<wgt id='1818'> +7.5346808e+04 </wgt>
<wgt id='1819'> +7.5170437e+04 </wgt>
<wgt id='1820'> +7.5154359e+04 </wgt>
<wgt id='1821'> +7.5248781e+04 </wgt>
<wgt id='1822'> +7.5192635e+04 </wgt>
<wgt id='1823'> +7.5015213e+04 </wgt>
<wgt id='1824'> +7.5248126e+04 </wgt>
<wgt id='1825'> +7.4694014e+04 </wgt>
<wgt id='1826'> +7.6110642e+04 </wgt>
<wgt id='1827'> +8.5651863e+04 </wgt>
<wgt id='1828'> +8.5743753e+04 </wgt>
<wgt id='1829'> +8.5584253e+04 </wgt>
<wgt id='1830'> +8.6018702e+04 </wgt>
<wgt id='1831'> +8.5307652e+04 </wgt>
<wgt id='1832'> +8.5357695e+04 </wgt>
<wgt id='1833'> +8.5969810e+04 </wgt>
<wgt id='1834'> +8.5098746e+04 </wgt>
<wgt id='1835'> +8.6205060e+04 </wgt>
<wgt id='1836'> +8.6129840e+04 </wgt>
<wgt id='1837'> +8.5156809e+04 </wgt>
<wgt id='1838'> +8.6305981e+04 </wgt>
<wgt id='1839'> +8.5015811e+04 </wgt>
<wgt id='1840'> +8.6399874e+04 </wgt>
<wgt id='1841'> +8.4954444e+04 </wgt>
<wgt id='1842'> +8.6199915e+04 </wgt>
<wgt id='1843'> +8.5930395e+04 </wgt>
<wgt id='1844'> +8.5364669e+04 </wgt>
<wgt id='1845'> +8.5926530e+04 </wgt>
<wgt id='1846'> +8.5318303e+04 </wgt>
<wgt id='1847'> +8.5976700e+04 </wgt>
<wgt id='1848'> +8.4884851e+04 </wgt>
<wgt id='1849'> +8.6333243e+04 </wgt>
<wgt id='1850'> +8.5450456e+04 </wgt>
<wgt id='1851'> +8.5410826e+04 </wgt>
<wgt id='1852'> +8.5480627e+04 </wgt>
<wgt id='1853'> +8.5322648e+04 </wgt>
<wgt id='1854'> +8.5538231e+04 </wgt>
<wgt id='1855'> +8.5860535e+04 </wgt>
<wgt id='1856'> +9.5229968e+04 </wgt>
<wgt id='1857'> +9.5219984e+04 </wgt>
<wgt id='1858'> +9.5218413e+04 </wgt>
<wgt id='1859'> +9.5137175e+04 </wgt>
<wgt id='1860'> +9.5234262e+04 </wgt>
<wgt id='1861'> +9.5525505e+04 </wgt>
<wgt id='1862'> +9.5591602e+04 </wgt>
<wgt id='1863'> +9.4574374e+04 </wgt>
<wgt id='1864'> +9.4960199e+04 </wgt>
<wgt id='1865'> +9.5094856e+04 </wgt>
<wgt id='1866'> +9.5786960e+04 </wgt>
<wgt id='1867'> +9.5527781e+04 </wgt>
<wgt id='1868'> +9.7233360e+04 </wgt>
<wgt id='1869'> +9.5565117e+04 </wgt>
<wgt id='1870'> +9.6130683e+04 </wgt>
<wgt id='1871'> +9.5077081e+04 </wgt>
<wgt id='1872'> +9.5671243e+04 </wgt>
<wgt id='1873'> +9.5191754e+04 </wgt>
<wgt id='1874'> +9.4917771e+04 </wgt>
<wgt id='1875'> +9.4813183e+04 </wgt>
<wgt id='1876'> +9.4863065e+04 </wgt>
<wgt id='1877'> +9.7089050e+04 </wgt>
<wgt id='1878'> +9.5380047e+04 </wgt>
<wgt id='1879'> +9.5360722e+04 </wgt>
<wgt id='1880'> +9.5774655e+04 </wgt>
<wgt id='1881'> +9.6138220e+04 </wgt>
<wgt id='1882'> +9.4991155e+04 </wgt>
<wgt id='1883'> +9.4622992e+04 </wgt>
<wgt id='1884'> +9.5755181e+04 </wgt>
<wgt id='1885'> +9.3948880e+04 </wgt>
<wgt id='1886'> +4.7668085e+04 </wgt>
<wgt id='1887'> +6.6506006e+04 </wgt>
<wgt id='1888'> +7.8579877e+04 </wgt>
<wgt id='1889'> +9.5589359e+04 </wgt>
</rwgt>
</event>
<event npLO=" -1 " npNLO=" 0 ">
 5      0 +7.4519530e+04 3.83256040e+01 7.55820760e-03 1.14219230e-01
       -1 -1    0    0    0  501 +0.0000000000e+00 +0.0000000000e+00 +2.6169060486e+00 2.6169060486e+00 0.0000000000e+00 0.0000e+00 1.0000e+00
        2 -1    0    0  501    0 +0.0000000000e+00 +0.0000000000e+00 -6.1990404841e+02 6.1990404841e+02 0.0000000000e+00 0.0000e+00 -1.0000e+00
       24  2    1    2    0    0 +0.0000000000e+00 +0.0000000000e+00 -6.1728714236e+02 6.2252095446e+02 8.0553849166e+01 0.0000e+00 0.0000e+00
      -15  1    3    3    0    0 +1.0566177767e+01 +3.6818872969e+01 -2.1308534937e+02 2.1650819237e+02 1.7770000000e+00 0.0000e+00 1.0000e+00
       16  1    3    3    0    0 -1.0566177767e+01 -3.6818872969e+01 -4.0420179299e+02 4.0601276209e+02 0.0000000000e+00 0.0000e+00 -1.0000e+00
#aMCatNLO 1  0  0  1  2 0.10703447E+03 0.00000000E+00 -9  5  0 0.00000000E+00 0.00000000E+00 0.00000000E+00 0.00000000E+00 0.00000000E+00
<rwgt>
<wgt id='1001'> +7.4519530e+04 </wgt>
<wgt id='1002'> +7.4537681e+04 </wgt>
<wgt id='1003'> +7.4496917e+04 </wgt>
<wgt id='1004'> +4.7789816e+04 </wgt>
<wgt id='1005'> +5.1209973e+04 </wgt>
<wgt id='1006'> +4.3528567e+04 </wgt>
<wgt id='1007'> +9.5677922e+04 </wgt>
<wgt id='1008'> +9.2765360e+04 </wgt>
<wgt id='1009'> +9.9306748e+04 </wgt>
<wgt id='1010'> +7.4519530e+04 </wgt>
<wgt id='1011'> +7.4534341e+04 </wgt>
<wgt id='1012'> +7.4638957e+04 </wgt>
<wgt id='1013'> +7.4054450e+04 </wgt>
<wgt id='1014'> +7.4561927e+04 </wgt>
<wgt id='1015'> +7.4298524e+04 </wgt>
<wgt id='1016'> +7.4549550e+04 </wgt>
<wgt id='1017'> +7.4516292e+04 </wgt>
<wgt id='1018'> +7.4423970e+04 </wgt>
<wgt id='1019'> +7.4328801e+04 </wgt>
<wgt id='1020'> +7.4210120e+04 </wgt>
<wgt id='1021'> +7.4500565e+04 </wgt>
<wgt id='1022'> +7.4488076e+04 </wgt>
<wgt id='1023'> +7.4593313e+04 </wgt>
<wgt id='1024'> +7.4532133e+04 </wgt>
<wgt id='1025'> +7.4737003e+04 </wgt>
<wgt id='1026'> +7.4436097e+04 </wgt>
<wgt id='1027'> +7.4524096e+04 </wgt>
<wgt id='1028'> +7.4672680e+04 </wgt>
<wgt id='1029'> +7.4723969e+04 </wgt>
<wgt id='1030'> +7.4990524e+04 </wgt>
<wgt id='1031'> +7.4666453e+04 </wgt>
<wgt id='1032'> +7.4611114e+04 </wgt>
<wgt id='1033'> +7.4467289e+04 </wgt>
<wgt id='1034'> +7.4713982e+04 </wgt>
<wgt id='1035'> +7.4469484e+04 </wgt>
<wgt id='1036'> +7.4298855e+04 </wgt>
<wgt id='1037'> +7.4827664e+04 </wgt>
<wgt id='1038'> +7.4664202e+04 </wgt>
<wgt id='1039'> +7.4734398e+04 </wgt>
<wgt id='1040'> +7.4332355e+04 </wgt>
<wgt id='1041'> +7.4927811e+04 </wgt>
<wgt id='1042'> +7.4605007e+04 </wgt>
<wgt id='1043'> +7.4559769e+04 </wgt>
<wgt id='1044'> +7.4626526e+04 </wgt>
<wgt id='1045'> +7.4517822e+04 </wgt>
<wgt id='1046'> +7.4332444e+04 </wgt>
<wgt id='1047'> +7.4577540e+04 </wgt>
<wgt id='1048'> +7.4581819e+04 </wgt>
<wgt id='1049'> +7.4477556e+04 </wgt>
<wgt id='1050'> +7.4682538e+04 </wgt>
<wgt id='1051'> +7.4847817e+04 </wgt>
<wgt id='1052'> +7.4611588e+04 </wgt>
<wgt id='1053'> +7.4490981e+04 </wgt>
<wgt id='1054'> +7.4438936e+04 </wgt>
<wgt id='1055'> +7.4488980e+04 </wgt>
<wgt id='1056'> +7.4534442e+04 </wgt>
<wgt id='1057'> +7.4368687e+04 </wgt>
<wgt id='1058'> +7.4369238e+04 </wgt>
<wgt id='1059'> +7.4629484e+04 </wgt>
<wgt id='1060'> +7.4397016e+04 </wgt>
<wgt id='1061'> +7.4471803e+04 </wgt>
<wgt id='1062'> +7.4635564e+04 </wgt>
<wgt id='1063'> +7.4537930e+04 </wgt>
<wgt id='1064'> +7.4606716e+04 </wgt>
<wgt id='1065'> +7.4550948e+04 </wgt>
<wgt id='1066'> +7.4584988e+04 </wgt>
<wgt id='1067'> +7.4623694e+04 </wgt>
<wgt id='1068'> +7.4566630e+04 </wgt>
<wgt id='1069'> +7.4555207e+04 </wgt>
<wgt id='1070'> +7.4494065e+04 </wgt>
<wgt id='1071'> +7.4577718e+04 </wgt>
<wgt id='1072'> +7.4513448e+04 </wgt>
<wgt id='1073'> +7.4457236e+04 </wgt>
<wgt id='1074'> +7.4468254e+04 </wgt>
<wgt id='1075'> +7.4556757e+04 </wgt>
<wgt id='1076'> +7.4538426e+04 </wgt>
<wgt id='1077'> +7.4538921e+04 </wgt>
<wgt id='1078'> +7.4490519e+04 </wgt>
<wgt id='1079'> +7.4583537e+04 </wgt>
<wgt id='1080'> +7.4484776e+04 </wgt>
<wgt id='1081'> +7.4489783e+04 </wgt>
<wgt id='1082'> +7.4574584e+04 </wgt>
<wgt id='1083'> +7.4413967e+04 </wgt>
<wgt id='1084'> +7.4515666e+04 </wgt>
<wgt id='1085'> +7.4452177e+04 </wgt>
<wgt id='1086'> +7.4539326e+04 </wgt>
<wgt id='1087'> +7.4600059e+04 </wgt>
<wgt id='1088'> +7.4552797e+04 </wgt>
<wgt id='1089'> +7.4497047e+04 </wgt>
<wgt id='1090'> +7.4576599e+04 </wgt>
<wgt id='1091'> +7.4451192e+04 </wgt>
<wgt id='1092'> +7.4502562e+04 </wgt>
<wgt id='1093'> +7.4503511e+04 </wgt>
<wgt id='1094'> +7.4569161e+04 </wgt>
<wgt id='1095'> +7.4544338e+04 </wgt>
<wgt id='1096'> +7.4527156e+04 </wgt>
<wgt id='1097'> +7.4459582e+04 </wgt>
<wgt id='1098'> +7.4529440e+04 </wgt>
<wgt id='1099'> +7.4541978e+04 </wgt>
<wgt id='1100'> +7.4506138e+04 </wgt>
<wgt id='1101'> +7.4519190e+04 </wgt>
<wgt id='1102'> +7.4554560e+04 </wgt>
<wgt id='1103'> +7.4544802e+04 </wgt>
<wgt id='1104'> +7.4507395e+04 </wgt>
<wgt id='1105'> +7.4502203e+04 </wgt>
<wgt id='1106'> +7.4495266e+04 </wgt>
<wgt id='1107'> +7.4528528e+04 </wgt>
<wgt id='1108'> +7.4524663e+04 </wgt>
<wgt id='1109'> +7.4533100e+04 </wgt>
<wgt id='1110'> +7.4519530e+04 </wgt>
<wgt id='1111'> +7.3738894e+04 </wgt>
<wgt id='1112'> +7.5165698e+04 </wgt>
<wgt id='1113'> +7.4519530e+04 </wgt>
<wgt id='1114'> +7.4142450e+04 </wgt>
<wgt id='1115'> +7.6688391e+04 </wgt>
<wgt id='1116'> +7.0798679e+04 </wgt>
<wgt id='1117'> +7.3425581e+04 </wgt>
<wgt id='1118'> +7.3062853e+04 </wgt>
<wgt id='1119'> +7.4736510e+04 </wgt>
<wgt id='1120'> +7.6722890e+04 </wgt>
<wgt id='1121'> +7.3812029e+04 </wgt>
<wgt id='1122'> +7.4405726e+04 </wgt>
<wgt id='1123'> +7.3125227e+04 </wgt>
<wgt id='1124'> +7.3574579e+04 </wgt>
<wgt id='1125'> +7.3469103e+04 </wgt>
<wgt id='1126'> +7.5078504e+04 </wgt>
<wgt id='1127'> +7.4318141e+04 </wgt>
<wgt id='1128'> +7.5311228e+04 </wgt>
<wgt id='1129'> +7.4488636e+04 </wgt>
<wgt id='1130'> +7.5054957e+04 </wgt>
<wgt id='1131'> +7.4054411e+04 </wgt>
<wgt id='1132'> +7.6280718e+04 </wgt>
<wgt id='1133'> +7.4263661e+04 </wgt>
<wgt id='1134'> +7.4407528e+04 </wgt>
<wgt id='1135'> +7.5729670e+04 </wgt>
<wgt id='1136'> +7.6492400e+04 </wgt>
<wgt id='1137'> +7.3687373e+04 </wgt>
<wgt id='1138'> +7.5464068e+04 </wgt>
<wgt id='1139'> +7.3804821e+04 </wgt>
<wgt id='1140'> +7.6552946e+04 </wgt>
<wgt id='1141'> +7.5107602e+04 </wgt>
<wgt id='1142'> +7.5493536e+04 </wgt>
<wgt id='1143'> +7.7213284e+04 </wgt>
<wgt id='1144'> +7.2930295e+04 </wgt>
<wgt id='1145'> +7.3880254e+04 </wgt>
<wgt id='1146'> +7.5270655e+04 </wgt>
<wgt id='1147'> +7.3743190e+04 </wgt>
<wgt id='1148'> +7.2544602e+04 </wgt>
<wgt id='1149'> +7.4125696e+04 </wgt>
<wgt id='1150'> +7.3212266e+04 </wgt>
<wgt id='1151'> +7.4328872e+04 </wgt>
<wgt id='1152'> +7.6272188e+04 </wgt>
<wgt id='1153'> +7.4498937e+04 </wgt>
<wgt id='1154'> +7.4892064e+04 </wgt>
<wgt id='1155'> +7.5396017e+04 </wgt>
<wgt id='1156'> +7.4566071e+04 </wgt>
<wgt id='1157'> +7.5419978e+04 </wgt>
<wgt id='1158'> +7.3320278e+04 </wgt>
<wgt id='1159'> +7.4454981e+04 </wgt>
<wgt id='1160'> +7.6180357e+04 </wgt>
<wgt id='1161'> +7.2902067e+04 </wgt>
<wgt id='1162'> +7.7563656e+04 </wgt>
<wgt id='1163'> +7.4400849e+04 </wgt>
<wgt id='1164'> +7.2786490e+04 </wgt>
<wgt id='1165'> +7.4951199e+04 </wgt>
<wgt id='1166'> +7.6204866e+04 </wgt>
<wgt id='1167'> +7.5361286e+04 </wgt>
<wgt id='1168'> +7.3213843e+04 </wgt>
<wgt id='1169'> +7.4396655e+04 </wgt>
<wgt id='1170'> +7.5431160e+04 </wgt>
<wgt id='1171'> +7.5256489e+04 </wgt>
<wgt id='1172'> +7.6026508e+04 </wgt>
<wgt id='1173'> +7.3180392e+04 </wgt>
<wgt id='1174'> +7.5163209e+04 </wgt>
<wgt id='1175'> +7.4174286e+04 </wgt>
<wgt id='1176'> +7.4530406e+04 </wgt>
<wgt id='1177'> +7.1946407e+04 </wgt>
<wgt id='1178'> +7.4931233e+04 </wgt>
<wgt id='1179'> +7.4777439e+04 </wgt>
<wgt id='1180'> +7.3630180e+04 </wgt>
<wgt id='1181'> +7.6071049e+04 </wgt>
<wgt id='1182'> +7.6488082e+04 </wgt>
<wgt id='1183'> +7.5529470e+04 </wgt>
<wgt id='1184'> +7.4408777e+04 </wgt>
<wgt id='1185'> +7.5663743e+04 </wgt>
<wgt id='1186'> +7.2338125e+04 </wgt>
<wgt id='1187'> +7.4437044e+04 </wgt>
<wgt id='1188'> +7.3800707e+04 </wgt>
<wgt id='1189'> +7.4805958e+04 </wgt>
<wgt id='1190'> +7.4401392e+04 </wgt>
<wgt id='1191'> +7.5815721e+04 </wgt>
<wgt id='1192'> +7.3806291e+04 </wgt>
<wgt id='1193'> +7.3319465e+04 </wgt>
<wgt id='1194'> +7.4488130e+04 </wgt>
<wgt id='1195'> +7.4488636e+04 </wgt>
<wgt id='1196'> +7.2354874e+04 </wgt>
<wgt id='1197'> +7.3883249e+04 </wgt>
<wgt id='1198'> +7.4708400e+04 </wgt>
<wgt id='1199'> +7.6230063e+04 </wgt>
<wgt id='1200'> +7.4098509e+04 </wgt>
<wgt id='1201'> +7.4148550e+04 </wgt>
<wgt id='1202'> +7.0854817e+04 </wgt>
<wgt id='1203'> +7.4080481e+04 </wgt>
<wgt id='1204'> +7.4999896e+04 </wgt>
<wgt id='1205'> +7.4871891e+04 </wgt>
<wgt id='1206'> +7.4053494e+04 </wgt>
<wgt id='1207'> +7.5895109e+04 </wgt>
<wgt id='1208'> +7.3380495e+04 </wgt>
<wgt id='1209'> +7.6289715e+04 </wgt>
<wgt id='1210'> +7.1688813e+04 </wgt>
<wgt id='1211'> +7.4952912e+04 </wgt>
<wgt id='1212'> +7.3889386e+04 </wgt>
<wgt id='1213'> +7.4688247e+04 </wgt>
<wgt id='1214'> +7.4475639e+04 </wgt>
<wgt id='1215'> +7.1136258e+04 </wgt>
<wgt id='1216'> +7.1609245e+04 </wgt>
<wgt id='1217'> +7.2308654e+04 </wgt>
<wgt id='1218'> +7.3128276e+04 </wgt>
<wgt id='1219'> +7.4489501e+04 </wgt>
<wgt id='1220'> +7.4849374e+04 </wgt>
<wgt id='1221'> +7.6130068e+04 </wgt>
<wgt id='1222'> +7.6622413e+04 </wgt>
<wgt id='1223'> +7.3049989e+04 </wgt>
<wgt id='1224'> +7.2888511e+04 </wgt>
<wgt id='1225'> +7.3441979e+04 </wgt>
<wgt id='1226'> +7.2758926e+04 </wgt>
<wgt id='1227'> +7.3320806e+04 </wgt>
<wgt id='1228'> +7.3029263e+04 </wgt>
<wgt id='1229'> +7.2634386e+04 </wgt>
<wgt id='1230'> +7.3242811e+04 </wgt>
<wgt id='1231'> +7.3479796e+04 </wgt>
<wgt id='1232'> +7.3298986e+04 </wgt>
<wgt id='1233'> +7.2885948e+04 </wgt>
<wgt id='1234'> +7.2898255e+04 </wgt>
<wgt id='1235'> +7.3180933e+04 </wgt>
<wgt id='1236'> +7.3316200e+04 </wgt>
<wgt id='1237'> +7.2914605e+04 </wgt>
<wgt id='1238'> +7.3159042e+04 </wgt>
<wgt id='1239'> +7.3329186e+04 </wgt>
<wgt id='1240'> +7.3055767e+04 </wgt>
<wgt id='1241'> +7.3183934e+04 </wgt>
<wgt id='1242'> +7.3151525e+04 </wgt>
<wgt id='1243'> +7.3036644e+04 </wgt>
<wgt id='1244'> +7.3140653e+04 </wgt>
<wgt id='1245'> +7.3024961e+04 </wgt>
<wgt id='1246'> +7.2933861e+04 </wgt>
<wgt id='1247'> +7.3333535e+04 </wgt>
<wgt id='1248'> +7.2895249e+04 </wgt>
<wgt id='1249'> +7.3067194e+04 </wgt>
<wgt id='1250'> +7.3002958e+04 </wgt>
<wgt id='1251'> +7.3143371e+04 </wgt>
<wgt id='1252'> +7.3410592e+04 </wgt>
<wgt id='1253'> +7.2575721e+04 </wgt>
<wgt id='1254'> +7.2716223e+04 </wgt>
<wgt id='1255'> +7.3206099e+04 </wgt>
<wgt id='1256'> +7.3092955e+04 </wgt>
<wgt id='1257'> +7.2986100e+04 </wgt>
<wgt id='1258'> +7.3164530e+04 </wgt>
<wgt id='1259'> +7.3159609e+04 </wgt>
<wgt id='1260'> +7.2901650e+04 </wgt>
<wgt id='1261'> +7.3078187e+04 </wgt>
<wgt id='1262'> +7.3082337e+04 </wgt>
<wgt id='1263'> +7.3033124e+04 </wgt>
<wgt id='1264'> +7.3151957e+04 </wgt>
<wgt id='1265'> +7.3140851e+04 </wgt>
<wgt id='1266'> +7.2943925e+04 </wgt>
<wgt id='1267'> +7.3086059e+04 </wgt>
<wgt id='1268'> +7.3091933e+04 </wgt>
<wgt id='1269'> +7.3012867e+04 </wgt>
<wgt id='1270'> +7.3018622e+04 </wgt>
<wgt id='1271'> +7.3169842e+04 </wgt>
<wgt id='1272'> +7.3103261e+04 </wgt>
<wgt id='1273'> +7.2975327e+04 </wgt>
<wgt id='1274'> +7.3039057e+04 </wgt>
<wgt id='1275'> +7.3094397e+04 </wgt>
<wgt id='1276'> +7.2924420e+04 </wgt>
<wgt id='1277'> +7.3029954e+04 </wgt>
<wgt id='1278'> +7.3075845e+04 </wgt>
<wgt id='1279'> +7.2926248e+04 </wgt>
<wgt id='1280'> +7.3074731e+04 </wgt>
<wgt id='1281'> +7.2917930e+04 </wgt>
<wgt id='1282'> +7.3075715e+04 </wgt>
<wgt id='1283'> +7.3055785e+04 </wgt>
<wgt id='1284'> +7.3051065e+04 </wgt>
<wgt id='1285'> +7.2949956e+04 </wgt>
<wgt id='1286'> +7.3089130e+04 </wgt>
<wgt id='1287'> +7.2966666e+04 </wgt>
<wgt id='1288'> +7.3118129e+04 </wgt>
<wgt id='1289'> +7.3062238e+04 </wgt>
<wgt id='1290'> +7.2941991e+04 </wgt>
<wgt id='1291'> +7.3118733e+04 </wgt>
<wgt id='1292'> +7.3004422e+04 </wgt>
<wgt id='1293'> +7.3061769e+04 </wgt>
<wgt id='1294'> +7.3041463e+04 </wgt>
<wgt id='1295'> +7.3097181e+04 </wgt>
<wgt id='1296'> +7.3062515e+04 </wgt>
<wgt id='1297'> +7.3124905e+04 </wgt>
<wgt id='1298'> +7.3007055e+04 </wgt>
<wgt id='1299'> +7.3073567e+04 </wgt>
<wgt id='1300'> +7.3075330e+04 </wgt>
<wgt id='1301'> +7.3044391e+04 </wgt>
<wgt id='1302'> +7.3028372e+04 </wgt>
<wgt id='1303'> +7.3053159e+04 </wgt>
<wgt id='1304'> +7.3103955e+04 </wgt>
<wgt id='1305'> +7.2993136e+04 </wgt>
<wgt id='1306'> +7.3061548e+04 </wgt>
<wgt id='1307'> +7.2978045e+04 </wgt>
<wgt id='1308'> +7.3015240e+04 </wgt>
<wgt id='1309'> +7.3063122e+04 </wgt>
<wgt id='1310'> +7.3098816e+04 </wgt>
<wgt id='1311'> +7.2982814e+04 </wgt>
<wgt id='1312'> +7.2997934e+04 </wgt>
<wgt id='1313'> +7.3001959e+04 </wgt>
<wgt id='1314'> +7.3097671e+04 </wgt>
<wgt id='1315'> +7.3036973e+04 </wgt>
<wgt id='1316'> +7.3041426e+04 </wgt>
<wgt id='1317'> +7.3092057e+04 </wgt>
<wgt id='1318'> +7.3074982e+04 </wgt>
<wgt id='1319'> +7.3003038e+04 </wgt>
<wgt id='1320'> +7.3071515e+04 </wgt>
<wgt id='1321'> +7.3071526e+04 </wgt>
<wgt id='1322'> +7.3011162e+04 </wgt>
<wgt id='1323'> +7.3014581e+04 </wgt>
<wgt id='1324'> +7.2298741e+04 </wgt>
<wgt id='1325'> +7.3820522e+04 </wgt>
<wgt id='1326'> +7.3059467e+04 </wgt>
<wgt id='1327'> +7.0248371e+04 </wgt>
<wgt id='1328'> +7.4333426e+04 </wgt>
<wgt id='1329'> +7.3943546e+04 </wgt>
<wgt id='1330'> +7.4389257e+04 </wgt>
<wgt id='1331'> +7.4586427e+04 </wgt>
<wgt id='1332'> +7.4518331e+04 </wgt>
<wgt id='1333'> +7.4720082e+04 </wgt>
<wgt id='1334'> +7.2461917e+04 </wgt>
<wgt id='1335'> +7.3478074e+04 </wgt>
<wgt id='1336'> +7.4600094e+04 </wgt>
<wgt id='1337'> +7.4230781e+04 </wgt>
<wgt id='1338'> +7.4984223e+04 </wgt>
<wgt id='1339'> +7.4670342e+04 </wgt>
<wgt id='1340'> +7.3725792e+04 </wgt>
<wgt id='1341'> +7.3380909e+04 </wgt>
<wgt id='1342'> +7.4763854e+04 </wgt>
<wgt id='1343'> +7.4743944e+04 </wgt>
<wgt id='1344'> +7.3280154e+04 </wgt>
<wgt id='1345'> +7.5778794e+04 </wgt>
<wgt id='1346'> +7.4426323e+04 </wgt>
<wgt id='1347'> +7.5126050e+04 </wgt>
<wgt id='1348'> +7.3033713e+04 </wgt>
<wgt id='1349'> +7.4413736e+04 </wgt>
<wgt id='1350'> +7.3288655e+04 </wgt>
<wgt id='1351'> +7.3749002e+04 </wgt>
<wgt id='1352'> +7.4588902e+04 </wgt>
<wgt id='1353'> +7.4619823e+04 </wgt>
<wgt id='1354'> +7.4967820e+04 </wgt>
<wgt id='1355'> +7.4870081e+04 </wgt>
<wgt id='1356'> +7.4213583e+04 </wgt>
<wgt id='1357'> +7.3957187e+04 </wgt>
<wgt id='1358'> +7.4051279e+04 </wgt>
<wgt id='1359'> +7.5093011e+04 </wgt>
<wgt id='1360'> +7.4142801e+04 </wgt>
<wgt id='1361'> +7.5838825e+04 </wgt>
<wgt id='1362'> +7.5195252e+04 </wgt>
<wgt id='1363'> +7.4141598e+04 </wgt>
<wgt id='1364'> +7.4447670e+04 </wgt>
<wgt id='1365'> +7.3747402e+04 </wgt>
<wgt id='1366'> +7.4116829e+04 </wgt>
<wgt id='1367'> +7.4839826e+04 </wgt>
<wgt id='1368'> +7.4855822e+04 </wgt>
<wgt id='1369'> +7.2820847e+04 </wgt>
<wgt id='1370'> +7.4479212e+04 </wgt>
<wgt id='1371'> +7.4000288e+04 </wgt>
<wgt id='1372'> +7.4994364e+04 </wgt>
<wgt id='1373'> +7.4370653e+04 </wgt>
<wgt id='1374'> +7.5026571e+04 </wgt>
<wgt id='1375'> +7.4806986e+04 </wgt>
<wgt id='1376'> +7.4334973e+04 </wgt>
<wgt id='1377'> +7.4443001e+04 </wgt>
<wgt id='1378'> +7.3302408e+04 </wgt>
<wgt id='1379'> +7.5517607e+04 </wgt>
<wgt id='1380'> +7.3430447e+04 </wgt>
<wgt id='1381'> +7.3694167e+04 </wgt>
<wgt id='1382'> +7.3732358e+04 </wgt>
<wgt id='1383'> +7.4755640e+04 </wgt>
<wgt id='1384'> +7.4439645e+04 </wgt>
<wgt id='1385'> +7.3100111e+04 </wgt>
<wgt id='1386'> +7.4766266e+04 </wgt>
<wgt id='1387'> +7.3476709e+04 </wgt>
<wgt id='1388'> +7.4928532e+04 </wgt>
<wgt id='1389'> +7.4035091e+04 </wgt>
<wgt id='1390'> +7.2794640e+04 </wgt>
<wgt id='1391'> +7.4450172e+04 </wgt>
<wgt id='1392'> +7.4199818e+04 </wgt>
<wgt id='1393'> +7.3390270e+04 </wgt>
<wgt id='1394'> +7.3747402e+04 </wgt>
<wgt id='1395'> +7.4644724e+04 </wgt>
<wgt id='1396'> +7.2613396e+04 </wgt>
<wgt id='1397'> +7.4588644e+04 </wgt>
<wgt id='1398'> +7.5218985e+04 </wgt>
<wgt id='1399'> +7.4917878e+04 </wgt>
<wgt id='1400'> +7.5661016e+04 </wgt>
<wgt id='1401'> +7.4758622e+04 </wgt>
<wgt id='1402'> +7.4729106e+04 </wgt>
<wgt id='1403'> +7.4327376e+04 </wgt>
<wgt id='1404'> +7.5397433e+04 </wgt>
<wgt id='1405'> +7.2659057e+04 </wgt>
<wgt id='1406'> +7.3667768e+04 </wgt>
<wgt id='1407'> +7.4523413e+04 </wgt>
<wgt id='1408'> +7.5364665e+04 </wgt>
<wgt id='1409'> +7.3470997e+04 </wgt>
<wgt id='1410'> +7.4577574e+04 </wgt>
<wgt id='1411'> +7.5007818e+04 </wgt>
<wgt id='1412'> +7.5532488e+04 </wgt>
<wgt id='1413'> +7.5058660e+04 </wgt>
<wgt id='1414'> +7.4482535e+04 </wgt>
<wgt id='1415'> +7.2900308e+04 </wgt>
<wgt id='1416'> +7.4772404e+04 </wgt>
<wgt id='1417'> +7.3645653e+04 </wgt>
<wgt id='1418'> +7.5742860e+04 </wgt>
<wgt id='1419'> +7.4790738e+04 </wgt>
<wgt id='1420'> +7.3661257e+04 </wgt>
<wgt id='1421'> +7.3964615e+04 </wgt>
<wgt id='1422'> +7.4054464e+04 </wgt>
<wgt id='1423'> +7.5231553e+04 </wgt>
<wgt id='1424'> +7.3741906e+04 </wgt>
<wgt id='1425'> +7.3048114e+04 </wgt>
<wgt id='1426'> +7.4897359e+04 </wgt>
<wgt id='1427'> +7.5351963e+04 </wgt>
<wgt id='1428'> +7.5251724e+04 </wgt>
<wgt id='1429'> +7.4149980e+04 </wgt>
<wgt id='1430'> +7.4499170e+04 </wgt>
<wgt id='1431'> +7.4307694e+04 </wgt>
<wgt id='1432'> +7.4777155e+04 </wgt>
<wgt id='1433'> +7.4322476e+04 </wgt>
<wgt id='1434'> +7.4168499e+04 </wgt>
<wgt id='1435'> +7.4147307e+04 </wgt>
<wgt id='1436'> +7.4198207e+04 </wgt>
<wgt id='1437'> +7.4513918e+04 </wgt>
<wgt id='1438'> +7.4452619e+04 </wgt>
<wgt id='1439'> +7.4139319e+04 </wgt>
<wgt id='1440'> +7.4294371e+04 </wgt>
<wgt id='1441'> +7.4235238e+04 </wgt>
<wgt id='1442'> +7.4450052e+04 </wgt>
<wgt id='1443'> +7.4305434e+04 </wgt>
<wgt id='1444'> +7.4134641e+04 </wgt>
<wgt id='1445'> +7.4306685e+04 </wgt>
<wgt id='1446'> +7.4272862e+04 </wgt>
<wgt id='1447'> +7.4081117e+04 </wgt>
<wgt id='1448'> +7.4437243e+04 </wgt>
<wgt id='1449'> +7.4286601e+04 </wgt>
<wgt id='1450'> +7.4048601e+04 </wgt>
<wgt id='1451'> +7.4259406e+04 </wgt>
<wgt id='1452'> +7.4232725e+04 </wgt>
<wgt id='1453'> +7.4343590e+04 </wgt>
<wgt id='1454'> +7.4284433e+04 </wgt>
<wgt id='1455'> +7.4285433e+04 </wgt>
<wgt id='1456'> +7.4327384e+04 </wgt>
<wgt id='1457'> +7.4396466e+04 </wgt>
<wgt id='1458'> +7.4307124e+04 </wgt>
<wgt id='1459'> +7.4265672e+04 </wgt>
<wgt id='1460'> +7.4207045e+04 </wgt>
<wgt id='1461'> +7.4240779e+04 </wgt>
<wgt id='1462'> +7.4266375e+04 </wgt>
<wgt id='1463'> +7.4282594e+04 </wgt>
<wgt id='1464'> +7.4253651e+04 </wgt>
<wgt id='1465'> +7.4294775e+04 </wgt>
<wgt id='1466'> +7.4323688e+04 </wgt>
<wgt id='1467'> +7.4316891e+04 </wgt>
<wgt id='1468'> +7.4345974e+04 </wgt>
<wgt id='1469'> +7.4279615e+04 </wgt>
<wgt id='1470'> +7.4358254e+04 </wgt>
<wgt id='1471'> +7.4342136e+04 </wgt>
<wgt id='1472'> +7.4315605e+04 </wgt>
<wgt id='1473'> +7.4291959e+04 </wgt>
<wgt id='1474'> +7.4318177e+04 </wgt>
<wgt id='1475'> +7.4283303e+04 </wgt>
<wgt id='1476'> +7.4333299e+04 </wgt>
<wgt id='1477'> +7.4306402e+04 </wgt>
<wgt id='1478'> +7.4312162e+04 </wgt>
<wgt id='1479'> +7.4258903e+04 </wgt>
<wgt id='1480'> +7.4339322e+04 </wgt>
<wgt id='1481'> +7.4291597e+04 </wgt>
<wgt id='1482'> +7.4149980e+04 </wgt>
<wgt id='1483'> +7.4499170e+04 </wgt>
<wgt id='1484'> +7.6723660e+04 </wgt>
<wgt id='1485'> +7.6900827e+04 </wgt>
<wgt id='1486'> +7.6770946e+04 </wgt>
<wgt id='1487'> +7.5278136e+04 </wgt>
<wgt id='1488'> +7.6400518e+04 </wgt>
<wgt id='1489'> +7.6995513e+04 </wgt>
<wgt id='1490'> +7.5096185e+04 </wgt>
<wgt id='1491'> +7.6680426e+04 </wgt>
<wgt id='1492'> +7.5060604e+04 </wgt>
<wgt id='1493'> +7.6639112e+04 </wgt>
<wgt id='1494'> +7.6095741e+04 </wgt>
<wgt id='1495'> +7.5385376e+04 </wgt>
<wgt id='1496'> +7.6214210e+04 </wgt>
<wgt id='1497'> +7.6150965e+04 </wgt>
<wgt id='1498'> +7.7676944e+04 </wgt>
<wgt id='1499'> +7.6940541e+04 </wgt>
<wgt id='1500'> +7.5572771e+04 </wgt>
<wgt id='1501'> +7.6102223e+04 </wgt>
<wgt id='1502'> +7.7663484e+04 </wgt>
<wgt id='1503'> +7.6065274e+04 </wgt>
<wgt id='1504'> +7.6905984e+04 </wgt>
<wgt id='1505'> +7.6653407e+04 </wgt>
<wgt id='1506'> +7.6357538e+04 </wgt>
<wgt id='1507'> +7.6015344e+04 </wgt>
<wgt id='1508'> +7.5171015e+04 </wgt>
<wgt id='1509'> +7.6554850e+04 </wgt>
<wgt id='1510'> +7.6869851e+04 </wgt>
<wgt id='1511'> +7.5770859e+04 </wgt>
<wgt id='1512'> +7.6015121e+04 </wgt>
<wgt id='1513'> +7.6400548e+04 </wgt>
<wgt id='1514'> +7.6926251e+04 </wgt>
<wgt id='1515'> +7.6131841e+04 </wgt>
<wgt id='1516'> +7.5034973e+04 </wgt>
<wgt id='1517'> +7.7089571e+04 </wgt>
<wgt id='1518'> +7.6847104e+04 </wgt>
<wgt id='1519'> +7.7004289e+04 </wgt>
<wgt id='1520'> +7.6216687e+04 </wgt>
<wgt id='1521'> +7.5098562e+04 </wgt>
<wgt id='1522'> +7.7554895e+04 </wgt>
<wgt id='1523'> +7.7311228e+04 </wgt>
<wgt id='1524'> +7.6770755e+04 </wgt>
<wgt id='1525'> +7.7004469e+04 </wgt>
<wgt id='1526'> +7.6765209e+04 </wgt>
<wgt id='1527'> +7.7074266e+04 </wgt>
<wgt id='1528'> +7.7285351e+04 </wgt>
<wgt id='1529'> +7.7576263e+04 </wgt>
<wgt id='1530'> +7.6698992e+04 </wgt>
<wgt id='1531'> +7.6209772e+04 </wgt>
<wgt id='1532'> +7.5545755e+04 </wgt>
<wgt id='1533'> +7.7343810e+04 </wgt>
<wgt id='1534'> +7.7306863e+04 </wgt>
<wgt id='1535'> +7.6116502e+04 </wgt>
<wgt id='1536'> +7.7104146e+04 </wgt>
<wgt id='1537'> +7.6613330e+04 </wgt>
<wgt id='1538'> +7.8889627e+04 </wgt>
<wgt id='1539'> +7.7099757e+04 </wgt>
<wgt id='1540'> +7.7253965e+04 </wgt>
<wgt id='1541'> +7.7231635e+04 </wgt>
<wgt id='1542'> +7.7794745e+04 </wgt>
<wgt id='1543'> +7.7182268e+04 </wgt>
<wgt id='1544'> +7.7873961e+04 </wgt>
<wgt id='1545'> +7.6840199e+04 </wgt>
<wgt id='1546'> +7.6651040e+04 </wgt>
<wgt id='1547'> +7.7566922e+04 </wgt>
<wgt id='1548'> +7.6063554e+04 </wgt>
<wgt id='1549'> +7.7846658e+04 </wgt>
<wgt id='1550'> +7.7629106e+04 </wgt>
<wgt id='1551'> +7.8412716e+04 </wgt>
<wgt id='1552'> +7.6400811e+04 </wgt>
<wgt id='1553'> +7.8350987e+04 </wgt>
<wgt id='1554'> +7.4844067e+04 </wgt>
<wgt id='1555'> +7.7133137e+04 </wgt>
<wgt id='1556'> +7.6977912e+04 </wgt>
<wgt id='1557'> +7.6372486e+04 </wgt>
<wgt id='1558'> +7.7582698e+04 </wgt>
<wgt id='1559'> +7.7592066e+04 </wgt>
<wgt id='1560'> +7.6532163e+04 </wgt>
<wgt id='1561'> +7.7215695e+04 </wgt>
<wgt id='1562'> +7.7248430e+04 </wgt>
<wgt id='1563'> +7.6965960e+04 </wgt>
<wgt id='1564'> +7.5914841e+04 </wgt>
<wgt id='1565'> +7.5483547e+04 </wgt>
<wgt id='1566'> +7.7057966e+04 </wgt>
<wgt id='1567'> +7.8189241e+04 </wgt>
<wgt id='1568'> +7.6650165e+04 </wgt>
<wgt id='1569'> +7.7653248e+04 </wgt>
<wgt id='1570'> +7.7500895e+04 </wgt>
<wgt id='1571'> +7.8012740e+04 </wgt>
<wgt id='1572'> +7.5917604e+04 </wgt>
<wgt id='1573'> +7.7179978e+04 </wgt>
<wgt id='1574'> +7.5944672e+04 </wgt>
<wgt id='1575'> +7.5754546e+04 </wgt>
<wgt id='1576'> +7.7531800e+04 </wgt>
<wgt id='1577'> +7.5473338e+04 </wgt>
<wgt id='1578'> +7.6826490e+04 </wgt>
<wgt id='1579'> +7.6813647e+04 </wgt>
<wgt id='1580'> +7.8115409e+04 </wgt>
<wgt id='1581'> +7.7677279e+04 </wgt>
<wgt id='1582'> +7.6920455e+04 </wgt>
<wgt id='1583'> +7.5655243e+04 </wgt>
<wgt id='1584'> +7.5538324e+04 </wgt>
<wgt id='1585'> +7.3860910e+04 </wgt>
<wgt id='1586'> +6.5578700e+04 </wgt>
<wgt id='1587'> +7.3783279e+04 </wgt>
<wgt id='1588'> +7.4149980e+04 </wgt>
<wgt id='1589'> +7.4175108e+04 </wgt>
<wgt id='1590'> +7.4224012e+04 </wgt>
<wgt id='1591'> +7.4499170e+04 </wgt>
<wgt id='1592'> +7.4511907e+04 </wgt>
<wgt id='1593'> +7.5320625e+04 </wgt>
<wgt id='1594'> +7.6022490e+04 </wgt>
<wgt id='1595'> +7.5511600e+04 </wgt>
<wgt id='1596'> +7.4875664e+04 </wgt>
<wgt id='1597'> +7.5928287e+04 </wgt>
<wgt id='1598'> +7.4871731e+04 </wgt>
<wgt id='1599'> +7.5865344e+04 </wgt>
<wgt id='1600'> +7.4005901e+04 </wgt>
<wgt id='1601'> +7.6525335e+04 </wgt>
<wgt id='1602'> +7.4903075e+04 </wgt>
<wgt id='1603'> +7.5850812e+04 </wgt>
<wgt id='1604'> +7.5912691e+04 </wgt>
<wgt id='1605'> +7.5066721e+04 </wgt>
<wgt id='1606'> +7.4572507e+04 </wgt>
<wgt id='1607'> +7.5670523e+04 </wgt>
<wgt id='1608'> +7.4002356e+04 </wgt>
<wgt id='1609'> +7.6098696e+04 </wgt>
<wgt id='1610'> +7.5266690e+04 </wgt>
<wgt id='1611'> +7.5119891e+04 </wgt>
<wgt id='1612'> +7.5897542e+04 </wgt>
<wgt id='1613'> +7.3866210e+04 </wgt>
<wgt id='1614'> +7.4893177e+04 </wgt>
<wgt id='1615'> +7.6049381e+04 </wgt>
<wgt id='1616'> +7.4446105e+04 </wgt>
<wgt id='1617'> +7.5893192e+04 </wgt>
<wgt id='1618'> +7.5543616e+04 </wgt>
<wgt id='1619'> +7.4807492e+04 </wgt>
<wgt id='1620'> +7.5721706e+04 </wgt>
<wgt id='1621'> +7.5002105e+04 </wgt>
<wgt id='1622'> +7.5673753e+04 </wgt>
<wgt id='1623'> +7.4719907e+04 </wgt>
<wgt id='1624'> +7.5638939e+04 </wgt>
<wgt id='1625'> +7.3967356e+04 </wgt>
<wgt id='1626'> +7.4593223e+04 </wgt>
<wgt id='1627'> +7.5807039e+04 </wgt>
<wgt id='1628'> +7.6001499e+04 </wgt>
<wgt id='1629'> +7.5186106e+04 </wgt>
<wgt id='1630'> +7.5227207e+04 </wgt>
<wgt id='1631'> +7.4959239e+04 </wgt>
<wgt id='1632'> +7.4707051e+04 </wgt>
<wgt id='1633'> +7.5778469e+04 </wgt>
<wgt id='1634'> +7.6298403e+04 </wgt>
<wgt id='1635'> +7.4429253e+04 </wgt>
<wgt id='1636'> +7.4957701e+04 </wgt>
<wgt id='1637'> +7.6132913e+04 </wgt>
<wgt id='1638'> +7.4974830e+04 </wgt>
<wgt id='1639'> +7.5393022e+04 </wgt>
<wgt id='1640'> +7.6890595e+04 </wgt>
<wgt id='1641'> +7.4177934e+04 </wgt>
<wgt id='1642'> +7.4632429e+04 </wgt>
<wgt id='1643'> +7.5988137e+04 </wgt>
<wgt id='1644'> +7.6117358e+04 </wgt>
<wgt id='1645'> +7.4092052e+04 </wgt>
<wgt id='1646'> +7.5210826e+04 </wgt>
<wgt id='1647'> +7.5934435e+04 </wgt>
<wgt id='1648'> +7.5931213e+04 </wgt>
<wgt id='1649'> +7.5583535e+04 </wgt>
<wgt id='1650'> +7.6432430e+04 </wgt>
<wgt id='1651'> +7.3959734e+04 </wgt>
<wgt id='1652'> +7.4626001e+04 </wgt>
<wgt id='1653'> +7.4968514e+04 </wgt>
<wgt id='1654'> +7.5686789e+04 </wgt>
<wgt id='1655'> +7.6068499e+04 </wgt>
<wgt id='1656'> +7.6364459e+04 </wgt>
<wgt id='1657'> +7.6731898e+04 </wgt>
<wgt id='1658'> +7.6686396e+04 </wgt>
<wgt id='1659'> +7.6407493e+04 </wgt>
<wgt id='1660'> +7.6581096e+04 </wgt>
<wgt id='1661'> +7.7084565e+04 </wgt>
<wgt id='1662'> +7.5441558e+04 </wgt>
<wgt id='1663'> +7.5971160e+04 </wgt>
<wgt id='1664'> +7.6068887e+04 </wgt>
<wgt id='1665'> +7.5733393e+04 </wgt>
<wgt id='1666'> +7.6404099e+04 </wgt>
<wgt id='1667'> +7.5676550e+04 </wgt>
<wgt id='1668'> +7.6914497e+04 </wgt>
<wgt id='1669'> +7.6737616e+04 </wgt>
<wgt id='1670'> +7.5671084e+04 </wgt>
<wgt id='1671'> +7.6369467e+04 </wgt>
<wgt id='1672'> +7.6676799e+04 </wgt>
<wgt id='1673'> +7.7438488e+04 </wgt>
<wgt id='1674'> +7.5698239e+04 </wgt>
<wgt id='1675'> +7.7133107e+04 </wgt>
<wgt id='1676'> +7.5773974e+04 </wgt>
<wgt id='1677'> +7.5642505e+04 </wgt>
<wgt id='1678'> +7.7175114e+04 </wgt>
<wgt id='1679'> +7.6495915e+04 </wgt>
<wgt id='1680'> +7.6955532e+04 </wgt>
<wgt id='1681'> +7.6501982e+04 </wgt>
<wgt id='1682'> +7.5812693e+04 </wgt>
<wgt id='1683'> +7.6303924e+04 </wgt>
<wgt id='1684'> +7.6429761e+04 </wgt>
<wgt id='1685'> +7.7401878e+04 </wgt>
<wgt id='1686'> +7.5267431e+04 </wgt>
<wgt id='1687'> +7.7192673e+04 </wgt>
<wgt id='1688'> +7.5166572e+04 </wgt>
<wgt id='1689'> +7.5772374e+04 </wgt>
<wgt id='1690'> +7.7365446e+04 </wgt>
<wgt id='1691'> +7.6600464e+04 </wgt>
<wgt id='1692'> +7.6263284e+04 </wgt>
<wgt id='1693'> +7.7084712e+04 </wgt>
<wgt id='1694'> +7.6146762e+04 </wgt>
<wgt id='1695'> +7.6268369e+04 </wgt>
<wgt id='1696'> +7.6587127e+04 </wgt>
<wgt id='1697'> +7.6690980e+04 </wgt>
<wgt id='1698'> +7.6350325e+04 </wgt>
<wgt id='1699'> +7.5635434e+04 </wgt>
<wgt id='1700'> +7.7238621e+04 </wgt>
<wgt id='1701'> +7.6033420e+04 </wgt>
<wgt id='1702'> +7.6901479e+04 </wgt>
<wgt id='1703'> +7.6441901e+04 </wgt>
<wgt id='1704'> +7.6768736e+04 </wgt>
<wgt id='1705'> +7.6279333e+04 </wgt>
<wgt id='1706'> +7.6505676e+04 </wgt>
<wgt id='1707'> +7.5118714e+04 </wgt>
<wgt id='1708'> +7.7274467e+04 </wgt>
<wgt id='1709'> +7.5952053e+04 </wgt>
<wgt id='1710'> +7.7003753e+04 </wgt>
<wgt id='1711'> +7.6022843e+04 </wgt>
<wgt id='1712'> +7.6683664e+04 </wgt>
<wgt id='1713'> +7.7153910e+04 </wgt>
<wgt id='1714'> +7.5266728e+04 </wgt>
<wgt id='1715'> +7.4457078e+04 </wgt>
<wgt id='1716'> +7.6231371e+04 </wgt>
<wgt id='1717'> +7.3110651e+04 </wgt>
<wgt id='1718'> +7.3259819e+04 </wgt>
<wgt id='1719'> +7.2919079e+04 </wgt>
<wgt id='1720'> +7.3125613e+04 </wgt>
<wgt id='1721'> +7.3096988e+04 </wgt>
<wgt id='1722'> +7.3092987e+04 </wgt>
<wgt id='1723'> +7.3139490e+04 </wgt>
<wgt id='1724'> +7.3267487e+04 </wgt>
<wgt id='1725'> +7.2983062e+04 </wgt>
<wgt id='1726'> +7.2962662e+04 </wgt>
<wgt id='1727'> +7.3263256e+04 </wgt>
<wgt id='1728'> +7.2608940e+04 </wgt>
<wgt id='1729'> +7.3598070e+04 </wgt>
<wgt id='1730'> +7.3112294e+04 </wgt>
<wgt id='1731'> +7.3108937e+04 </wgt>
<wgt id='1732'> +7.3550458e+04 </wgt>
<wgt id='1733'> +7.3550458e+04 </wgt>
<wgt id='1734'> +7.2964183e+04 </wgt>
<wgt id='1735'> +7.3205613e+04 </wgt>
<wgt id='1736'> +7.2965087e+04 </wgt>
<wgt id='1737'> +7.3309698e+04 </wgt>
<wgt id='1738'> +7.3386653e+04 </wgt>
<wgt id='1739'> +7.2604054e+04 </wgt>
<wgt id='1740'> +7.2998538e+04 </wgt>
<wgt id='1741'> +7.3377336e+04 </wgt>
<wgt id='1742'> +7.3284324e+04 </wgt>
<wgt id='1743'> +7.2904894e+04 </wgt>
<wgt id='1744'> +7.3001937e+04 </wgt>
<wgt id='1745'> +7.3404852e+04 </wgt>
<wgt id='1746'> +7.2573448e+04 </wgt>
<wgt id='1747'> +7.3389290e+04 </wgt>
<wgt id='1748'> +7.3244445e+04 </wgt>
<wgt id='1749'> +7.2603627e+04 </wgt>
<wgt id='1750'> +7.3035421e+04 </wgt>
<wgt id='1751'> +7.3190629e+04 </wgt>
<wgt id='1752'> +7.3103829e+04 </wgt>
<wgt id='1753'> +7.3114071e+04 </wgt>
<wgt id='1754'> +7.3106115e+04 </wgt>
<wgt id='1755'> +7.3103225e+04 </wgt>
<wgt id='1756'> +7.2704843e+04 </wgt>
<wgt id='1757'> +7.4126500e+04 </wgt>
<wgt id='1758'> +7.3389105e+04 </wgt>
<wgt id='1759'> +7.2631399e+04 </wgt>
<wgt id='1760'> +7.3588326e+04 </wgt>
<wgt id='1761'> +7.2708923e+04 </wgt>
<wgt id='1762'> +7.3083127e+04 </wgt>
<wgt id='1763'> +7.3151236e+04 </wgt>
<wgt id='1764'> +7.2992247e+04 </wgt>
<wgt id='1765'> +7.3625605e+04 </wgt>
<wgt id='1766'> +7.3058698e+04 </wgt>
<wgt id='1767'> +7.3263930e+04 </wgt>
<wgt id='1768'> +7.3122552e+04 </wgt>
<wgt id='1769'> +7.3131817e+04 </wgt>
<wgt id='1770'> +7.2873388e+04 </wgt>
<wgt id='1771'> +7.3467959e+04 </wgt>
<wgt id='1772'> +7.3260685e+04 </wgt>
<wgt id='1773'> +7.2867003e+04 </wgt>
<wgt id='1774'> +7.2913700e+04 </wgt>
<wgt id='1775'> +7.3225730e+04 </wgt>
<wgt id='1776'> +7.3321012e+04 </wgt>
<wgt id='1777'> +7.3022031e+04 </wgt>
<wgt id='1778'> +7.3184265e+04 </wgt>
<wgt id='1779'> +7.3138503e+04 </wgt>
<wgt id='1780'> +7.3457206e+04 </wgt>
<wgt id='1781'> +7.3241160e+04 </wgt>
<wgt id='1782'> +7.3110651e+04 </wgt>
<wgt id='1783'> +7.3097566e+04 </wgt>
<wgt id='1784'> +7.4037577e+04 </wgt>
<wgt id='1785'> +7.3901407e+04 </wgt>
<wgt id='1786'> +7.2997029e+04 </wgt>
<wgt id='1787'> +7.4043199e+04 </wgt>
<wgt id='1788'> +7.4069313e+04 </wgt>
<wgt id='1789'> +7.4088728e+04 </wgt>
<wgt id='1790'> +7.3775501e+04 </wgt>
<wgt id='1791'> +7.4031075e+04 </wgt>
<wgt id='1792'> +7.3668279e+04 </wgt>
<wgt id='1793'> +7.4212085e+04 </wgt>
<wgt id='1794'> +7.4334743e+04 </wgt>
<wgt id='1795'> +7.3279687e+04 </wgt>
<wgt id='1796'> +7.4074708e+04 </wgt>
<wgt id='1797'> +7.3995731e+04 </wgt>
<wgt id='1798'> +7.3979194e+04 </wgt>
<wgt id='1799'> +7.4550093e+04 </wgt>
<wgt id='1800'> +7.4371668e+04 </wgt>
<wgt id='1801'> +7.4599204e+04 </wgt>
<wgt id='1802'> +7.4461975e+04 </wgt>
<wgt id='1803'> +7.4129064e+04 </wgt>
<wgt id='1804'> +7.3526705e+04 </wgt>
<wgt id='1805'> +7.4069979e+04 </wgt>
<wgt id='1806'> +7.3867532e+04 </wgt>
<wgt id='1807'> +7.4064722e+04 </wgt>
<wgt id='1808'> +7.4062044e+04 </wgt>
<wgt id='1809'> +7.3583184e+04 </wgt>
<wgt id='1810'> +7.3962231e+04 </wgt>
<wgt id='1811'> +7.3878133e+04 </wgt>
<wgt id='1812'> +7.4075076e+04 </wgt>
<wgt id='1813'> +7.4057319e+04 </wgt>
<wgt id='1814'> +7.3894167e+04 </wgt>
<wgt id='1815'> +7.3970484e+04 </wgt>
<wgt id='1816'> +7.4013464e+04 </wgt>
<wgt id='1817'> +7.3653131e+04 </wgt>
<wgt id='1818'> +7.4038759e+04 </wgt>
<wgt id='1819'> +7.3829573e+04 </wgt>
<wgt id='1820'> +7.4028349e+04 </wgt>
<wgt id='1821'> +7.3875801e+04 </wgt>
<wgt id='1822'> +7.3788543e+04 </wgt>
<wgt id='1823'> +7.4021594e+04 </wgt>
<wgt id='1824'> +7.4121125e+04 </wgt>
<wgt id='1825'> +7.3665281e+04 </wgt>
<wgt id='1826'> +7.4585245e+04 </wgt>
<wgt id='1827'> +8.3099219e+04 </wgt>
<wgt id='1828'> +8.3251076e+04 </wgt>
<wgt id='1829'> +8.2983956e+04 </wgt>
<wgt id='1830'> +8.3225881e+04 </wgt>
<wgt id='1831'> +8.3007915e+04 </wgt>
<wgt id='1832'> +8.3087620e+04 </wgt>
<wgt id='1833'> +8.3145874e+04 </wgt>
<wgt id='1834'> +8.2740373e+04 </wgt>
<wgt id='1835'> +8.3477043e+04 </wgt>
<wgt id='1836'> +8.3418300e+04 </wgt>
<wgt id='1837'> +8.2800139e+04 </wgt>
<wgt id='1838'> +8.3260215e+04 </wgt>
<wgt id='1839'> +8.2970818e+04 </wgt>
<wgt id='1840'> +8.2777246e+04 </wgt>
<wgt id='1841'> +8.3468181e+04 </wgt>
<wgt id='1842'> +8.3161408e+04 </wgt>
<wgt id='1843'> +8.3430099e+04 </wgt>
<wgt id='1844'> +8.3236787e+04 </wgt>
<wgt id='1845'> +8.2977584e+04 </wgt>
<wgt id='1846'> +8.3229433e+04 </wgt>
<wgt id='1847'> +8.2992567e+04 </wgt>
<wgt id='1848'> +8.2474835e+04 </wgt>
<wgt id='1849'> +8.3674244e+04 </wgt>
<wgt id='1850'> +8.3418177e+04 </wgt>
<wgt id='1851'> +8.2822936e+04 </wgt>
<wgt id='1852'> +8.2757183e+04 </wgt>
<wgt id='1853'> +8.3271009e+04 </wgt>
<wgt id='1854'> +8.2823843e+04 </wgt>
<wgt id='1855'> +8.3238661e+04 </wgt>
<wgt id='1856'> +7.2941473e+04 </wgt>
<wgt id='1857'> +7.2929570e+04 </wgt>
<wgt id='1858'> +7.2938844e+04 </wgt>
<wgt id='1859'> +7.2932784e+04 </wgt>
<wgt id='1860'> +7.2942484e+04 </wgt>
<wgt id='1861'> +7.2976736e+04 </wgt>
<wgt id='1862'> +7.2700783e+04 </wgt>
<wgt id='1863'> +7.2895130e+04 </wgt>
<wgt id='1864'> +7.2796115e+04 </wgt>
<wgt id='1865'> +7.2777427e+04 </wgt>
<wgt id='1866'> +7.3207181e+04 </wgt>
<wgt id='1867'> +7.2858077e+04 </wgt>
<wgt id='1868'> +7.2875417e+04 </wgt>
<wgt id='1869'> +7.2996821e+04 </wgt>
<wgt id='1870'> +7.2858009e+04 </wgt>
<wgt id='1871'> +7.2977574e+04 </wgt>
<wgt id='1872'> +7.2978212e+04 </wgt>
<wgt id='1873'> +7.2912384e+04 </wgt>
<wgt id='1874'> +7.3024505e+04 </wgt>
<wgt id='1875'> +7.2997251e+04 </wgt>
<wgt id='1876'> +7.2644996e+04 </wgt>
<wgt id='1877'> +7.2833966e+04 </wgt>
<wgt id='1878'> +7.2792602e+04 </wgt>
<wgt id='1879'> +7.3159297e+04 </wgt>
<wgt id='1880'> +7.3138864e+04 </wgt>
<wgt id='1881'> +7.3144122e+04 </wgt>
<wgt id='1882'> +7.2902602e+04 </wgt>
<wgt id='1883'> +7.2992634e+04 </wgt>
<wgt id='1884'> +7.2711913e+04 </wgt>
<wgt id='1885'> +7.2366550e+04 </wgt>
<wgt id='1886'> +6.7821161e+04 </wgt>
<wgt id='1887'> +6.9706886e+04 </wgt>
<wgt id='1888'> +6.4088936e+04 </wgt>
<wgt id='1889'> +7.2321824e+04 </wgt>
</rwgt>
</event>
<event npLO=" -1 " npNLO=" 0 ">
 5      0 +7.4519530e+04 2.64476040e+01 7.55820760e-03 1.20281140e-01
        2 -1    0    0  501    0 +0.0000000000e+00 +0.0000000000e+00 +3.8155998376e+03 3.8155998376e+03 0.0000000000e+00 0.0000e+00 -1.0000e+00
       -1 -1    0    0    0  501 +0.0000000000e+00 +0.0000000000e+00 -4.2084886931e-01 4.2084886931e-01 0.0000000000e+00 0.0000e+00 1.0000e+00
       24  2    1    2    0    0 +0.0000000000e+00 +0.0000000000e+00 +3.8151789887e+03 3.8160206864e+03 8.0144641178e+01 0.0000e+00 0.0000e+00
      -11  1    3    3    0    0 -1.4546259985e+01 +8.4571650058e+00 +1.7592972547e+02 1.7673252566e+02 0.0000000000e+00 0.0000e+00 1.0000e+00
       12  1    3    3    0    0 +1.4546259985e+01 -8.4571650058e+00 +3.6392492632e+03 3.6392881608e+03 0.0000000000e+00 0.0000e+00 -1.0000e+00
#aMCatNLO 1  0  0  1  2 0.20668772E+02 0.00000000E+00 -9  5  0 0.00000000E+00 0.00000000E+00 0.00000000E+00 0.00000000E+00 0.00000000E+00
<rwgt>
<wgt id='1001'> +7.4519530e+04 </wgt>
<wgt id='1002'> +7.5503676e+04 </wgt>
<wgt id='1003'> +7.3293106e+04 </wgt>
<wgt id='1004'> +7.6045648e+04 </wgt>
<wgt id='1005'> +7.7133717e+04 </wgt>
<wgt id='1006'> +7.4689722e+04 </wgt>
<wgt id='1007'> +7.2018871e+04 </wgt>
<wgt id='1008'> +7.2891204e+04 </wgt>
<wgt id='1009'> +7.0931785e+04 </wgt>
<wgt id='1010'> +7.4519530e+04 </wgt>
<wgt id='1011'> +7.4535240e+04 </wgt>
<wgt id='1012'> +7.5506156e+04 </wgt>
<wgt id='1013'> +7.2782625e+04 </wgt>
<wgt id='1014'> +7.4274032e+04 </wgt>
<wgt id='1015'> +7.4456059e+04 </wgt>
<wgt id='1016'> +7.4325524e+04 </wgt>
<wgt id='1017'> +7.3936026e+04 </wgt>
<wgt id='1018'> +7.4005031e+04 </wgt>
<wgt id='1019'> +7.4133959e+04 </wgt>
<wgt id='1020'> +7.4426559e+04 </wgt>
<wgt id='1021'> +7.4469379e+04 </wgt>
<wgt id='1022'> +7.4986011e+04 </wgt>
<wgt id='1023'> +7.4916567e+04 </wgt>
<wgt id='1024'> +7.4232163e+04 </wgt>
<wgt id='1025'> +7.3926412e+04 </wgt>
<wgt id='1026'> +7.4784472e+04 </wgt>
<wgt id='1027'> +7.4768465e+04 </wgt>
<wgt id='1028'> +7.4200487e+04 </wgt>
<wgt id='1029'> +7.3932270e+04 </wgt>
<wgt id='1030'> +7.3517950e+04 </wgt>
<wgt id='1031'> +7.4895959e+04 </wgt>
<wgt id='1032'> +7.5374401e+04 </wgt>
<wgt id='1033'> +7.4420267e+04 </wgt>
<wgt id='1034'> +7.4576527e+04 </wgt>
<wgt id='1035'> +7.3106344e+04 </wgt>
<wgt id='1036'> +7.5265534e+04 </wgt>
<wgt id='1037'> +7.4332487e+04 </wgt>
<wgt id='1038'> +7.4362870e+04 </wgt>
<wgt id='1039'> +7.4659066e+04 </wgt>
<wgt id='1040'> +7.3850722e+04 </wgt>
<wgt id='1041'> +7.7158733e+04 </wgt>
<wgt id='1042'> +7.4311388e+04 </wgt>
<wgt id='1043'> +7.3784084e+04 </wgt>
<wgt id='1044'> +7.4341614e+04 </wgt>
<wgt id='1045'> +7.5824414e+04 </wgt>
<wgt id='1046'> +7.4022679e+04 </wgt>
<wgt id='1047'> +7.4554868e+04 </wgt>
<wgt id='1048'> +7.3617202e+04 </wgt>
<wgt id='1049'> +7.4438796e+04 </wgt>
<wgt id='1050'> +7.4959000e+04 </wgt>
<wgt id='1051'> +7.3720416e+04 </wgt>
<wgt id='1052'> +7.3764786e+04 </wgt>
<wgt id='1053'> +7.4536591e+04 </wgt>
<wgt id='1054'> +7.4671568e+04 </wgt>
<wgt id='1055'> +7.4348248e+04 </wgt>
<wgt id='1056'> +7.4073322e+04 </wgt>
<wgt id='1057'> +7.5273383e+04 </wgt>
<wgt id='1058'> +7.5462783e+04 </wgt>
<wgt id='1059'> +7.5544615e+04 </wgt>
<wgt id='1060'> +7.3507369e+04 </wgt>
<wgt id='1061'> +7.4624672e+04 </wgt>
<wgt id='1062'> +7.3095539e+04 </wgt>
<wgt id='1063'> +7.4224879e+04 </wgt>
<wgt id='1064'> +7.4809626e+04 </wgt>
<wgt id='1065'> +7.3937249e+04 </wgt>
<wgt id='1066'> +7.5380471e+04 </wgt>
<wgt id='1067'> +7.4180515e+04 </wgt>
<wgt id='1068'> +7.4613961e+04 </wgt>
<wgt id='1069'> +7.4737272e+04 </wgt>
<wgt id='1070'> +7.4266314e+04 </wgt>
<wgt id='1071'> +7.4903882e+04 </wgt>
<wgt id='1072'> +7.5137583e+04 </wgt>
<wgt id='1073'> +7.4884446e+04 </wgt>
<wgt id='1074'> +7.4965300e+04 </wgt>
<wgt id='1075'> +7.5007828e+04 </wgt>
<wgt id='1076'> +7.4344038e+04 </wgt>
<wgt id='1077'> +7.4461731e+04 </wgt>
<wgt id='1078'> +7.4365804e+04 </wgt>
<wgt id='1079'> +7.4335631e+04 </wgt>
<wgt id='1080'> +7.3941247e+04 </wgt>
<wgt id='1081'> +7.4570241e+04 </wgt>
<wgt id='1082'> +7.4539838e+04 </wgt>
<wgt id='1083'> +7.4410730e+04 </wgt>
<wgt id='1084'> +7.4562807e+04 </wgt>
<wgt id='1085'> +7.4220775e+04 </wgt>
<wgt id='1086'> +7.4403634e+04 </wgt>
<wgt id='1087'> +7.4750219e+04 </wgt>
<wgt id='1088'> +7.4724040e+04 </wgt>
<wgt id='1089'> +7.4271250e+04 </wgt>
<wgt id='1090'> +7.4774236e+04 </wgt>
<wgt id='1091'> +7.4864693e+04 </wgt>
<wgt id='1092'> +7.4453535e+04 </wgt>
<wgt id='1093'> +7.4485512e+04 </wgt>
<wgt id='1094'> +7.4258660e+04 </wgt>
<wgt id='1095'> +7.4665840e+04 </wgt>
<wgt id='1096'> +7.4395826e+04 </wgt>
<wgt id='1097'> +7.4622737e+04 </wgt>
<wgt id='1098'> +7.4488151e+04 </wgt>
<wgt id='1099'> +7.4490761e+04 </wgt>
<wgt id='1100'> +7.4682413e+04 </wgt>
<wgt id='1101'> +7.4443541e+04 </wgt>
<wgt id='1102'> +7.4593573e+04 </wgt>
<wgt id='1103'> +7.4430859e+04 </wgt>
<wgt id='1104'> +7.4562870e+04 </wgt>
<wgt id='1105'> +7.4497449e+04 </wgt>
<wgt id='1106'> +7.4521237e+04 </wgt>
<wgt id='1107'> +7.4221917e+04 </wgt>
<wgt id='1108'> +7.4602318e+04 </wgt>
<wgt id='1109'> +7.4422141e+04 </wgt>
<wgt id='1110'> +7.4519530e+04 </wgt>
<wgt id='1111'> +7.4083348e+04 </wgt>
<wgt id='1112'> +7.5621975e+04 </wgt>
<wgt id='1113'> +7.4519530e+04 </wgt>
<wgt id='1114'> +8.0190086e+04 </wgt>
<wgt id='1115'> +7.8573248e+04 </wgt>
<wgt id='1116'> +6.7287853e+04 </wgt>
<wgt id='1117'> +7.4002577e+04 </wgt>
<wgt id='1118'> +7.7914857e+04 </wgt>
<wgt id='1119'> +7.9789760e+04 </wgt>
<wgt id='1120'> +6.6510971e+04 </wgt>
<wgt id='1121'> +7.4795098e+04 </wgt>
<wgt id='1122'> +8.2760810e+04 </wgt>
<wgt id='1123'> +7.6758869e+04 </wgt>
<wgt id='1124'> +6.7087477e+04 </wgt>
<wgt id='1125'> +7.4690166e+04 </wgt>
<wgt id='1126'> +7.2822160e+04 </wgt>
<wgt id='1127'> +7.9576915e+04 </wgt>
<wgt id='1128'> +7.4836246e+04 </wgt>
<wgt id='1129'> +7.2052739e+04 </wgt>
<wgt id='1130'> +6.6729472e+04 </wgt>
<wgt id='1131'> +7.6444533e+04 </wgt>
<wgt id='1132'> +7.3862958e+04 </wgt>
<wgt id='1133'> +6.8666457e+04 </wgt>
<wgt id='1134'> +8.7162048e+04 </wgt>
<wgt id='1135'> +8.6492035e+04 </wgt>
<wgt id='1136'> +7.5009362e+04 </wgt>
<wgt id='1137'> +7.3762170e+04 </wgt>
<wgt id='1138'> +7.9541590e+04 </wgt>
<wgt id='1139'> +7.9114974e+04 </wgt>
<wgt id='1140'> +7.8321653e+04 </wgt>
<wgt id='1141'> +7.5099089e+04 </wgt>
<wgt id='1142'> +6.6992461e+04 </wgt>
<wgt id='1143'> +6.9653585e+04 </wgt>
<wgt id='1144'> +7.3876707e+04 </wgt>
<wgt id='1145'> +6.6854886e+04 </wgt>
<wgt id='1146'> +8.2481794e+04 </wgt>
<wgt id='1147'> +7.1622302e+04 </wgt>
<wgt id='1148'> +7.4139953e+04 </wgt>
<wgt id='1149'> +7.1991805e+04 </wgt>
<wgt id='1150'> +6.2225623e+04 </wgt>
<wgt id='1151'> +7.2818914e+04 </wgt>
<wgt id='1152'> +7.8949444e+04 </wgt>
<wgt id='1153'> +8.1855113e+04 </wgt>
<wgt id='1154'> +7.2982242e+04 </wgt>
<wgt id='1155'> +7.7035204e+04 </wgt>
<wgt id='1156'> +7.1291918e+04 </wgt>
<wgt id='1157'> +7.5919266e+04 </wgt>
<wgt id='1158'> +7.0076418e+04 </wgt>
<wgt id='1159'> +7.5302782e+04 </wgt>
<wgt id='1160'> +8.0604613e+04 </wgt>
<wgt id='1161'> +7.3791831e+04 </wgt>
<wgt id='1162'> +7.2902950e+04 </wgt>
<wgt id='1163'> +7.7633764e+04 </wgt>
<wgt id='1164'> +9.0937844e+04 </wgt>
<wgt id='1165'> +7.4382665e+04 </wgt>
<wgt id='1166'> +7.6949014e+04 </wgt>
<wgt id='1167'> +9.4729668e+04 </wgt>
<wgt id='1168'> +7.2922043e+04 </wgt>
<wgt id='1169'> +6.9169513e+04 </wgt>
<wgt id='1170'> +6.1305556e+04 </wgt>
<wgt id='1171'> +7.9247203e+04 </wgt>
<wgt id='1172'> +7.0991280e+04 </wgt>
<wgt id='1173'> +8.0694913e+04 </wgt>
<wgt id='1174'> +7.8663600e+04 </wgt>
<wgt id='1175'> +7.0381884e+04 </wgt>
<wgt id='1176'> +6.9608669e+04 </wgt>
<wgt id='1177'> +7.3184889e+04 </wgt>
<wgt id='1178'> +8.2426747e+04 </wgt>
<wgt id='1179'> +7.7252202e+04 </wgt>
<wgt id='1180'> +7.9904917e+04 </wgt>
<wgt id='1181'> +7.9065371e+04 </wgt>
<wgt id='1182'> +7.8727976e+04 </wgt>
<wgt id='1183'> +7.8990205e+04 </wgt>
<wgt id='1184'> +7.4187566e+04 </wgt>
<wgt id='1185'> +6.9277675e+04 </wgt>
<wgt id='1186'> +7.2802811e+04 </wgt>
<wgt id='1187'> +7.7635604e+04 </wgt>
<wgt id='1188'> +6.9401416e+04 </wgt>
<wgt id='1189'> +7.6748149e+04 </wgt>
<wgt id='1190'> +7.1411596e+04 </wgt>
<wgt id='1191'> +7.0880572e+04 </wgt>
<wgt id='1192'> +7.4442461e+04 </wgt>
<wgt id='1193'> +6.7944147e+04 </wgt>
<wgt id='1194'> +7.4766497e+04 </wgt>
<wgt id='1195'> +7.2052739e+04 </wgt>
<wgt id='1196'> +7.5419404e+04 </wgt>
<wgt id='1197'> +7.2386332e+04 </wgt>
<wgt id='1198'> +6.9233279e+04 </wgt>
<wgt id='1199'> +6.6365119e+04 </wgt>
<wgt id='1200'> +7.5944385e+04 </wgt>
<wgt id='1201'> +6.0309502e+04 </wgt>
<wgt id='1202'> +6.7895744e+04 </wgt>
<wgt id='1203'> +6.6497976e+04 </wgt>
<wgt id='1204'> +6.9631191e+04 </wgt>
<wgt id='1205'> +7.8474064e+04 </wgt>
<wgt id='1206'> +7.4215471e+04 </wgt>
<wgt id='1207'> +8.2716939e+04 </wgt>
<wgt id='1208'> +7.0322048e+04 </wgt>
<wgt id='1209'> +7.5418797e+04 </wgt>
<wgt id='1210'> +7.2610428e+04 </wgt>
<wgt id='1211'> +7.4123366e+04 </wgt>
<wgt id='1212'> +7.4062800e+04 </wgt>
<wgt id='1213'> +7.0674950e+04 </wgt>
<wgt id='1214'> +7.4052555e+04 </wgt>
<wgt id='1215'> +7.0155870e+04 </wgt>
<wgt id='1216'> +6.9791912e+04 </wgt>
<wgt id='1217'> +7.0483106e+04 </wgt>
<wgt id='1218'> +7.1410436e+04 </wgt>
<wgt id='1219'> +7.3563090e+04 </wgt>
<wgt id='1220'> +7.4242376e+04 </wgt>
<wgt id='1221'> +7.6133271e+04 </wgt>
<wgt id='1222'> +7.6130722e+04 </wgt>
<wgt id='1223'> +7.3228019e+04 </wgt>
<wgt id='1224'> +7.2100948e+04 </wgt>
<wgt id='1225'> +7.4328385e+04 </wgt>
<wgt id='1226'> +7.3201662e+04 </wgt>
<wgt id='1227'> +7.3560367e+04 </wgt>
<wgt id='1228'> +7.4079793e+04 </wgt>
<wgt id='1229'> +7.3079578e+04 </wgt>
<wgt id='1230'> +7.3833722e+04 </wgt>
<wgt id='1231'> +7.3456794e+04 </wgt>
<wgt id='1232'> +7.2932439e+04 </wgt>
<wgt id='1233'> +7.3260433e+04 </wgt>
<wgt id='1234'> +7.3081050e+04 </wgt>
<wgt id='1235'> +7.3037387e+04 </wgt>
<wgt id='1236'> +7.3348658e+04 </wgt>
<wgt id='1237'> +7.3329271e+04 </wgt>
<wgt id='1238'> +7.3078083e+04 </wgt>
<wgt id='1239'> +7.3433272e+04 </wgt>
<wgt id='1240'> +7.3054515e+04 </wgt>
<wgt id='1241'> +7.2963223e+04 </wgt>
<wgt id='1242'> +7.2961252e+04 </wgt>
<wgt id='1243'> +7.3006121e+04 </wgt>
<wgt id='1244'> +7.3470023e+04 </wgt>
<wgt id='1245'> +7.3449989e+04 </wgt>
<wgt id='1246'> +7.3913104e+04 </wgt>
<wgt id='1247'> +7.3339544e+04 </wgt>
<wgt id='1248'> +7.3141995e+04 </wgt>
<wgt id='1249'> +7.2997263e+04 </wgt>
<wgt id='1250'> +7.3039315e+04 </wgt>
<wgt id='1251'> +7.3594867e+04 </wgt>
<wgt id='1252'> +7.3861373e+04 </wgt>
<wgt id='1253'> +7.1457284e+04 </wgt>
<wgt id='1254'> +7.2766741e+04 </wgt>
<wgt id='1255'> +7.3464904e+04 </wgt>
<wgt id='1256'> +7.3439152e+04 </wgt>
<wgt id='1257'> +7.3240499e+04 </wgt>
<wgt id='1258'> +7.4034339e+04 </wgt>
<wgt id='1259'> +7.2580266e+04 </wgt>
<wgt id='1260'> +7.4552235e+04 </wgt>
<wgt id='1261'> +7.2159305e+04 </wgt>
<wgt id='1262'> +7.3005186e+04 </wgt>
<wgt id='1263'> +7.1910823e+04 </wgt>
<wgt id='1264'> +7.3813569e+04 </wgt>
<wgt id='1265'> +7.3140509e+04 </wgt>
<wgt id='1266'> +7.2881289e+04 </wgt>
<wgt id='1267'> +7.3344972e+04 </wgt>
<wgt id='1268'> +7.3701638e+04 </wgt>
<wgt id='1269'> +7.3099572e+04 </wgt>
<wgt id='1270'> +7.2689799e+04 </wgt>
<wgt id='1271'> +7.3363417e+04 </wgt>
<wgt id='1272'> +7.2919516e+04 </wgt>
<wgt id='1273'> +7.3087598e+04 </wgt>
<wgt id='1274'> +7.3268633e+04 </wgt>
<wgt id='1275'> +7.2465150e+04 </wgt>
<wgt id='1276'> +7.5178342e+04 </wgt>
<wgt id='1277'> +7.3573919e+04 </wgt>
<wgt id='1278'> +7.3869096e+04 </wgt>
<wgt id='1279'> +7.3628718e+04 </wgt>
<wgt id='1280'> +7.2336357e+04 </wgt>
<wgt id='1281'> +7.3129779e+04 </wgt>
<wgt id='1282'> +7.3457022e+04 </wgt>
<wgt id='1283'> +7.3659675e+04 </wgt>
<wgt id='1284'> +7.3473530e+04 </wgt>
<wgt id='1285'> +7.2577075e+04 </wgt>
<wgt id='1286'> +7.4074351e+04 </wgt>
<wgt id='1287'> +7.3237577e+04 </wgt>
<wgt id='1288'> +7.3055297e+04 </wgt>
<wgt id='1289'> +7.2515203e+04 </wgt>
<wgt id='1290'> +7.3196109e+04 </wgt>
<wgt id='1291'> +7.3569318e+04 </wgt>
<wgt id='1292'> +7.3819093e+04 </wgt>
<wgt id='1293'> +7.3740730e+04 </wgt>
<wgt id='1294'> +7.2814729e+04 </wgt>
<wgt id='1295'> +7.3392849e+04 </wgt>
<wgt id='1296'> +7.3553513e+04 </wgt>
<wgt id='1297'> +7.3683611e+04 </wgt>
<wgt id='1298'> +7.3260579e+04 </wgt>
<wgt id='1299'> +7.3507362e+04 </wgt>
<wgt id='1300'> +7.2700505e+04 </wgt>
<wgt id='1301'> +7.3359691e+04 </wgt>
<wgt id='1302'> +7.3290076e+04 </wgt>
<wgt id='1303'> +7.2834687e+04 </wgt>
<wgt id='1304'> +7.3315160e+04 </wgt>
<wgt id='1305'> +7.3519000e+04 </wgt>
<wgt id='1306'> +7.3092903e+04 </wgt>
<wgt id='1307'> +7.3175930e+04 </wgt>
<wgt id='1308'> +7.3510293e+04 </wgt>
<wgt id='1309'> +7.3001823e+04 </wgt>
<wgt id='1310'> +7.2941181e+04 </wgt>
<wgt id='1311'> +7.3473049e+04 </wgt>
<wgt id='1312'> +7.2564864e+04 </wgt>
<wgt id='1313'> +7.2836383e+04 </wgt>
<wgt id='1314'> +7.3351707e+04 </wgt>
<wgt id='1315'> +7.2971580e+04 </wgt>
<wgt id='1316'> +7.3455856e+04 </wgt>
<wgt id='1317'> +7.3210751e+04 </wgt>
<wgt id='1318'> +7.3151761e+04 </wgt>
<wgt id='1319'> +7.3218683e+04 </wgt>
<wgt id='1320'> +7.3021362e+04 </wgt>
<wgt id='1321'> +7.3150172e+04 </wgt>
<wgt id='1322'> +7.3194525e+04 </wgt>
<wgt id='1323'> +7.3497840e+04 </wgt>
<wgt id='1324'> +7.2901262e+04 </wgt>
<wgt id='1325'> +7.3900826e+04 </wgt>
<wgt id='1326'> +7.0296436e+04 </wgt>
<wgt id='1327'> +7.2833314e+04 </wgt>
<wgt id='1328'> +6.7610053e+04 </wgt>
<wgt id='1329'> +6.6456067e+04 </wgt>
<wgt id='1330'> +6.7797537e+04 </wgt>
<wgt id='1331'> +7.0808644e+04 </wgt>
<wgt id='1332'> +6.7638791e+04 </wgt>
<wgt id='1333'> +6.9314475e+04 </wgt>
<wgt id='1334'> +6.4490027e+04 </wgt>
<wgt id='1335'> +6.5898552e+04 </wgt>
<wgt id='1336'> +7.0537096e+04 </wgt>
<wgt id='1337'> +6.7648825e+04 </wgt>
<wgt id='1338'> +6.7353779e+04 </wgt>
<wgt id='1339'> +6.3928380e+04 </wgt>
<wgt id='1340'> +6.4726288e+04 </wgt>
<wgt id='1341'> +6.6833528e+04 </wgt>
<wgt id='1342'> +6.8208997e+04 </wgt>
<wgt id='1343'> +6.8551607e+04 </wgt>
<wgt id='1344'> +6.4087962e+04 </wgt>
<wgt id='1345'> +6.8286611e+04 </wgt>
<wgt id='1346'> +6.9406377e+04 </wgt>
<wgt id='1347'> +6.8962077e+04 </wgt>
<wgt id='1348'> +6.7685549e+04 </wgt>
<wgt id='1349'> +6.8253952e+04 </wgt>
<wgt id='1350'> +6.5130647e+04 </wgt>
<wgt id='1351'> +6.9582237e+04 </wgt>
<wgt id='1352'> +6.7125359e+04 </wgt>
<wgt id='1353'> +6.6737321e+04 </wgt>
<wgt id='1354'> +6.9269418e+04 </wgt>
<wgt id='1355'> +6.7756481e+04 </wgt>
<wgt id='1356'> +7.0437279e+04 </wgt>
<wgt id='1357'> +6.4652945e+04 </wgt>
<wgt id='1358'> +6.7747485e+04 </wgt>
<wgt id='1359'> +6.7848610e+04 </wgt>
<wgt id='1360'> +6.7629536e+04 </wgt>
<wgt id='1361'> +7.0671959e+04 </wgt>
<wgt id='1362'> +6.9474622e+04 </wgt>
<wgt id='1363'> +6.8885170e+04 </wgt>
<wgt id='1364'> +6.8890926e+04 </wgt>
<wgt id='1365'> +6.3448418e+04 </wgt>
<wgt id='1366'> +6.6161543e+04 </wgt>
<wgt id='1367'> +6.6931102e+04 </wgt>
<wgt id='1368'> +6.8714544e+04 </wgt>
<wgt id='1369'> +6.5894308e+04 </wgt>
<wgt id='1370'> +6.8313872e+04 </wgt>
<wgt id='1371'> +6.7553744e+04 </wgt>
<wgt id='1372'> +6.3919289e+04 </wgt>
<wgt id='1373'> +6.5993332e+04 </wgt>
<wgt id='1374'> +6.7672173e+04 </wgt>
<wgt id='1375'> +6.4918562e+04 </wgt>
<wgt id='1376'> +7.0474184e+04 </wgt>
<wgt id='1377'> +6.5111289e+04 </wgt>
<wgt id='1378'> +6.7246700e+04 </wgt>
<wgt id='1379'> +7.0172793e+04 </wgt>
<wgt id='1380'> +6.5142347e+04 </wgt>
<wgt id='1381'> +7.0687773e+04 </wgt>
<wgt id='1382'> +6.5622850e+04 </wgt>
<wgt id='1383'> +6.8762072e+04 </wgt>
<wgt id='1384'> +6.8263854e+04 </wgt>
<wgt id='1385'> +6.5566486e+04 </wgt>
<wgt id='1386'> +6.8736341e+04 </wgt>
<wgt id='1387'> +6.7284943e+04 </wgt>
<wgt id='1388'> +7.0568757e+04 </wgt>
<wgt id='1389'> +6.7992099e+04 </wgt>
<wgt id='1390'> +6.5323203e+04 </wgt>
<wgt id='1391'> +6.7573354e+04 </wgt>
<wgt id='1392'> +6.9308340e+04 </wgt>
<wgt id='1393'> +6.6068853e+04 </wgt>
<wgt id='1394'> +6.3448418e+04 </wgt>
<wgt id='1395'> +6.6799583e+04 </wgt>
<wgt id='1396'> +6.6900905e+04 </wgt>
<wgt id='1397'> +7.0690815e+04 </wgt>
<wgt id='1398'> +6.6645171e+04 </wgt>
<wgt id='1399'> +6.9871003e+04 </wgt>
<wgt id='1400'> +6.9584481e+04 </wgt>
<wgt id='1401'> +6.6654709e+04 </wgt>
<wgt id='1402'> +6.9967293e+04 </wgt>
<wgt id='1403'> +6.8614969e+04 </wgt>
<wgt id='1404'> +6.8459971e+04 </wgt>
<wgt id='1405'> +6.5235057e+04 </wgt>
<wgt id='1406'> +6.6132260e+04 </wgt>
<wgt id='1407'> +6.7730847e+04 </wgt>
<wgt id='1408'> +6.9278801e+04 </wgt>
<wgt id='1409'> +6.4738922e+04 </wgt>
<wgt id='1410'> +6.9084634e+04 </wgt>
<wgt id='1411'> +6.8367840e+04 </wgt>
<wgt id='1412'> +7.0423865e+04 </wgt>
<wgt id='1413'> +6.7121984e+04 </wgt>
<wgt id='1414'> +6.8029867e+04 </wgt>
<wgt id='1415'> +6.8776819e+04 </wgt>
<wgt id='1416'> +6.9215519e+04 </wgt>
<wgt id='1417'> +6.9710106e+04 </wgt>
<wgt id='1418'> +6.6384510e+04 </wgt>
<wgt id='1419'> +7.1086883e+04 </wgt>
<wgt id='1420'> +6.7623305e+04 </wgt>
<wgt id='1421'> +6.7104743e+04 </wgt>
<wgt id='1422'> +6.4291943e+04 </wgt>
<wgt id='1423'> +6.7855160e+04 </wgt>
<wgt id='1424'> +6.8448809e+04 </wgt>
<wgt id='1425'> +6.3576579e+04 </wgt>
<wgt id='1426'> +6.9675808e+04 </wgt>
<wgt id='1427'> +6.9649330e+04 </wgt>
<wgt id='1428'> +6.5161264e+04 </wgt>
<wgt id='1429'> +6.7462231e+04 </wgt>
<wgt id='1430'> +6.7410719e+04 </wgt>
<wgt id='1431'> +6.7364093e+04 </wgt>
<wgt id='1432'> +6.8175115e+04 </wgt>
<wgt id='1433'> +6.7317322e+04 </wgt>
<wgt id='1434'> +6.7128487e+04 </wgt>
<wgt id='1435'> +6.7132657e+04 </wgt>
<wgt id='1436'> +6.7318965e+04 </wgt>
<wgt id='1437'> +6.7432052e+04 </wgt>
<wgt id='1438'> +6.7400678e+04 </wgt>
<wgt id='1439'> +6.7151933e+04 </wgt>
<wgt id='1440'> +6.7446529e+04 </wgt>
<wgt id='1441'> +6.7298650e+04 </wgt>
<wgt id='1442'> +6.7513575e+04 </wgt>
<wgt id='1443'> +6.7332067e+04 </wgt>
<wgt id='1444'> +6.7085400e+04 </wgt>
<wgt id='1445'> +6.7219042e+04 </wgt>
<wgt id='1446'> +6.7511593e+04 </wgt>
<wgt id='1447'> +6.7087973e+04 </wgt>
<wgt id='1448'> +6.7425135e+04 </wgt>
<wgt id='1449'> +6.7325829e+04 </wgt>
<wgt id='1450'> +6.6889870e+04 </wgt>
<wgt id='1451'> +6.7578224e+04 </wgt>
<wgt id='1452'> +6.7544746e+04 </wgt>
<wgt id='1453'> +6.7408898e+04 </wgt>
<wgt id='1454'> +6.7283220e+04 </wgt>
<wgt id='1455'> +6.7798905e+04 </wgt>
<wgt id='1456'> +6.6978304e+04 </wgt>
<wgt id='1457'> +6.7483415e+04 </wgt>
<wgt id='1458'> +6.7873855e+04 </wgt>
<wgt id='1459'> +6.7520592e+04 </wgt>
<wgt id='1460'> +6.7590781e+04 </wgt>
<wgt id='1461'> +6.7575204e+04 </wgt>
<wgt id='1462'> +6.7251542e+04 </wgt>
<wgt id='1463'> +6.7547984e+04 </wgt>
<wgt id='1464'> +6.7520407e+04 </wgt>
<wgt id='1465'> +6.7481198e+04 </wgt>
<wgt id='1466'> +6.7156704e+04 </wgt>
<wgt id='1467'> +6.7885840e+04 </wgt>
<wgt id='1468'> +6.7923212e+04 </wgt>
<wgt id='1469'> +6.7160627e+04 </wgt>
<wgt id='1470'> +6.6976297e+04 </wgt>
<wgt id='1471'> +6.7641250e+04 </wgt>
<wgt id='1472'> +6.7259714e+04 </wgt>
<wgt id='1473'> +6.7493683e+04 </wgt>
<wgt id='1474'> +6.7387289e+04 </wgt>
<wgt id='1475'> +6.7410578e+04 </wgt>
<wgt id='1476'> +6.7647291e+04 </wgt>
<wgt id='1477'> +6.7121194e+04 </wgt>
<wgt id='1478'> +6.7661520e+04 </wgt>
<wgt id='1479'> +6.7159241e+04 </wgt>
<wgt id='1480'> +6.7543597e+04 </wgt>
<wgt id='1481'> +6.6942944e+04 </wgt>
<wgt id='1482'> +6.7462231e+04 </wgt>
<wgt id='1483'> +6.7410719e+04 </wgt>
<wgt id='1484'> +7.3830704e+04 </wgt>
<wgt id='1485'> +7.2184789e+04 </wgt>
<wgt id='1486'> +7.4161035e+04 </wgt>
<wgt id='1487'> +7.0145190e+04 </wgt>
<wgt id='1488'> +7.1466334e+04 </wgt>
<wgt id='1489'> +7.4906736e+04 </wgt>
<wgt id='1490'> +7.0626425e+04 </wgt>
<wgt id='1491'> +7.5551356e+04 </wgt>
<wgt id='1492'> +7.1233155e+04 </wgt>
<wgt id='1493'> +7.3966876e+04 </wgt>
<wgt id='1494'> +7.3771408e+04 </wgt>
<wgt id='1495'> +7.0034931e+04 </wgt>
<wgt id='1496'> +7.4323572e+04 </wgt>
<wgt id='1497'> +7.4598436e+04 </wgt>
<wgt id='1498'> +7.5178350e+04 </wgt>
<wgt id='1499'> +7.6178988e+04 </wgt>
<wgt id='1500'> +7.2051038e+04 </wgt>
<wgt id='1501'> +7.3842348e+04 </wgt>
<wgt id='1502'> +7.5543329e+04 </wgt>
<wgt id='1503'> +7.4373373e+04 </wgt>
<wgt id='1504'> +7.4404881e+04 </wgt>
<wgt id='1505'> +7.6334702e+04 </wgt>
<wgt id='1506'> +7.4276637e+04 </wgt>
<wgt id='1507'> +7.2754082e+04 </wgt>
<wgt id='1508'> +7.0088482e+04 </wgt>
<wgt id='1509'> +7.4653495e+04 </wgt>
<wgt id='1510'> +7.5278170e+04 </wgt>
<wgt id='1511'> +7.4225637e+04 </wgt>
<wgt id='1512'> +7.1797926e+04 </wgt>
<wgt id='1513'> +7.4874938e+04 </wgt>
<wgt id='1514'> +7.5557220e+04 </wgt>
<wgt id='1515'> +7.2363348e+04 </wgt>
<wgt id='1516'> +7.1039029e+04 </wgt>
<wgt id='1517'> +7.4392425e+04 </wgt>
<wgt id='1518'> +7.4227010e+04 </wgt>
<wgt id='1519'> +7.2126656e+04 </wgt>
<wgt id='1520'> +7.5242353e+04 </wgt>
<wgt id='1521'> +7.0783776e+04 </wgt>
<wgt id='1522'> +7.1546201e+04 </wgt>
<wgt id='1523'> +7.7124052e+04 </wgt>
<wgt id='1524'> +7.4346914e+04 </wgt>
<wgt id='1525'> +7.3804743e+04 </wgt>
<wgt id='1526'> +7.3968823e+04 </wgt>
<wgt id='1527'> +7.4728991e+04 </wgt>
<wgt id='1528'> +7.5116113e+04 </wgt>
<wgt id='1529'> +7.5245325e+04 </wgt>
<wgt id='1530'> +7.4947968e+04 </wgt>
<wgt id='1531'> +7.3288145e+04 </wgt>
<wgt id='1532'> +6.8306719e+04 </wgt>
<wgt id='1533'> +7.4047224e+04 </wgt>
<wgt id='1534'> +7.2918014e+04 </wgt>
<wgt id='1535'> +7.1497519e+04 </wgt>
<wgt id='1536'> +7.4319656e+04 </wgt>
<wgt id='1537'> +7.4269860e+04 </wgt>
<wgt id='1538'> +7.4764309e+04 </wgt>
<wgt id='1539'> +7.5118911e+04 </wgt>
<wgt id='1540'> +7.5809416e+04 </wgt>
<wgt id='1541'> +7.6586612e+04 </wgt>
<wgt id='1542'> +7.4779504e+04 </wgt>
<wgt id='1543'> +7.3126941e+04 </wgt>
<wgt id='1544'> +7.6603085e+04 </wgt>
<wgt id='1545'> +7.3637254e+04 </wgt>
<wgt id='1546'> +7.4542694e+04 </wgt>
<wgt id='1547'> +7.6641725e+04 </wgt>
<wgt id='1548'> +7.2029910e+04 </wgt>
<wgt id='1549'> +7.5983735e+04 </wgt>
<wgt id='1550'> +7.5395385e+04 </wgt>
<wgt id='1551'> +7.6072382e+04 </wgt>
<wgt id='1552'> +7.4468560e+04 </wgt>
<wgt id='1553'> +7.7003535e+04 </wgt>
<wgt id='1554'> +7.4270835e+04 </wgt>
<wgt id='1555'> +7.4782571e+04 </wgt>
<wgt id='1556'> +7.2687262e+04 </wgt>
<wgt id='1557'> +7.2528388e+04 </wgt>
<wgt id='1558'> +7.5395519e+04 </wgt>
<wgt id='1559'> +7.3971290e+04 </wgt>
<wgt id='1560'> +7.2661948e+04 </wgt>
<wgt id='1561'> +7.6611790e+04 </wgt>
<wgt id='1562'> +7.2517029e+04 </wgt>
<wgt id='1563'> +7.2383555e+04 </wgt>
<wgt id='1564'> +7.3929217e+04 </wgt>
<wgt id='1565'> +7.0622170e+04 </wgt>
<wgt id='1566'> +7.5257565e+04 </wgt>
<wgt id='1567'> +7.8713286e+04 </wgt>
<wgt id='1568'> +7.2164385e+04 </wgt>
<wgt id='1569'> +7.6424262e+04 </wgt>
<wgt id='1570'> +7.5283916e+04 </wgt>
<wgt id='1571'> +7.4101554e+04 </wgt>
<wgt id='1572'> +7.1159698e+04 </wgt>
<wgt id='1573'> +7.6468910e+04 </wgt>
<wgt id='1574'> +7.4087402e+04 </wgt>
<wgt id='1575'> +6.7644283e+04 </wgt>
<wgt id='1576'> +7.3733891e+04 </wgt>
<wgt id='1577'> +7.2385268e+04 </wgt>
<wgt id='1578'> +7.4082322e+04 </wgt>
<wgt id='1579'> +7.2407764e+04 </wgt>
<wgt id='1580'> +7.4859999e+04 </wgt>
<wgt id='1581'> +7.4972010e+04 </wgt>
<wgt id='1582'> +7.0632286e+04 </wgt>
<wgt id='1583'> +7.3790981e+04 </wgt>
<wgt id='1584'> +7.2387017e+04 </wgt>
<wgt id='1585'> +7.2450640e+04 </wgt>
<wgt id='1586'> +6.6685215e+04 </wgt>
<wgt id='1587'> +6.6779677e+04 </wgt>
<wgt id='1588'> +6.7462231e+04 </wgt>
<wgt id='1589'> +6.7358151e+04 </wgt>
<wgt id='1590'> +6.6766203e+04 </wgt>
<wgt id='1591'> +6.7410719e+04 </wgt>
<wgt id='1592'> +6.7262248e+04 </wgt>
<wgt id='1593'> +7.5653570e+04 </wgt>
<wgt id='1594'> +7.5206964e+04 </wgt>
<wgt id='1595'> +7.5010892e+04 </wgt>
<wgt id='1596'> +7.6677581e+04 </wgt>
<wgt id='1597'> +7.3861465e+04 </wgt>
<wgt id='1598'> +7.5226694e+04 </wgt>
<wgt id='1599'> +7.5799999e+04 </wgt>
<wgt id='1600'> +7.6240985e+04 </wgt>
<wgt id='1601'> +7.5074930e+04 </wgt>
<wgt id='1602'> +7.5675010e+04 </wgt>
<wgt id='1603'> +7.5865597e+04 </wgt>
<wgt id='1604'> +7.5174822e+04 </wgt>
<wgt id='1605'> +7.6356574e+04 </wgt>
<wgt id='1606'> +7.5783129e+04 </wgt>
<wgt id='1607'> +7.4745023e+04 </wgt>
<wgt id='1608'> +7.6179993e+04 </wgt>
<wgt id='1609'> +7.4753535e+04 </wgt>
<wgt id='1610'> +7.5434589e+04 </wgt>
<wgt id='1611'> +7.5764761e+04 </wgt>
<wgt id='1612'> +7.5861826e+04 </wgt>
<wgt id='1613'> +7.5232810e+04 </wgt>
<wgt id='1614'> +7.5497528e+04 </wgt>
<wgt id='1615'> +7.5937515e+04 </wgt>
<wgt id='1616'> +7.5405697e+04 </wgt>
<wgt id='1617'> +7.5382775e+04 </wgt>
<wgt id='1618'> +7.5167848e+04 </wgt>
<wgt id='1619'> +7.7023021e+04 </wgt>
<wgt id='1620'> +7.6098970e+04 </wgt>
<wgt id='1621'> +7.5455314e+04 </wgt>
<wgt id='1622'> +7.8629394e+04 </wgt>
<wgt id='1623'> +7.3174430e+04 </wgt>
<wgt id='1624'> +7.6077738e+04 </wgt>
<wgt id='1625'> +7.4047256e+04 </wgt>
<wgt id='1626'> +7.4408196e+04 </wgt>
<wgt id='1627'> +7.7043847e+04 </wgt>
<wgt id='1628'> +7.5185466e+04 </wgt>
<wgt id='1629'> +7.6580734e+04 </wgt>
<wgt id='1630'> +7.5268179e+04 </wgt>
<wgt id='1631'> +7.5822311e+04 </wgt>
<wgt id='1632'> +7.5045469e+04 </wgt>
<wgt id='1633'> +7.6505882e+04 </wgt>
<wgt id='1634'> +7.6154187e+04 </wgt>
<wgt id='1635'> +7.5411014e+04 </wgt>
<wgt id='1636'> +7.4842623e+04 </wgt>
<wgt id='1637'> +7.7453679e+04 </wgt>
<wgt id='1638'> +7.5388731e+04 </wgt>
<wgt id='1639'> +7.5812286e+04 </wgt>
<wgt id='1640'> +7.7943452e+04 </wgt>
<wgt id='1641'> +7.4192898e+04 </wgt>
<wgt id='1642'> +7.6436648e+04 </wgt>
<wgt id='1643'> +7.5064223e+04 </wgt>
<wgt id='1644'> +7.7268224e+04 </wgt>
<wgt id='1645'> +7.4215975e+04 </wgt>
<wgt id='1646'> +7.4914430e+04 </wgt>
<wgt id='1647'> +7.7442588e+04 </wgt>
<wgt id='1648'> +7.5973717e+04 </wgt>
<wgt id='1649'> +7.6437577e+04 </wgt>
<wgt id='1650'> +7.8894823e+04 </wgt>
<wgt id='1651'> +7.3484799e+04 </wgt>
<wgt id='1652'> +7.5711688e+04 </wgt>
<wgt id='1653'> +7.5707423e+04 </wgt>
<wgt id='1654'> +7.5559180e+04 </wgt>
<wgt id='1655'> +7.5433783e+04 </wgt>
<wgt id='1656'> +7.6176428e+04 </wgt>
<wgt id='1657'> +7.5611127e+04 </wgt>
<wgt id='1658'> +7.5587052e+04 </wgt>
<wgt id='1659'> +7.7347050e+04 </wgt>
<wgt id='1660'> +7.4934516e+04 </wgt>
<wgt id='1661'> +7.6949195e+04 </wgt>
<wgt id='1662'> +7.5099671e+04 </wgt>
<wgt id='1663'> +7.7397863e+04 </wgt>
<wgt id='1664'> +7.4722101e+04 </wgt>
<wgt id='1665'> +7.7284159e+04 </wgt>
<wgt id='1666'> +7.5423350e+04 </wgt>
<wgt id='1667'> +7.5852744e+04 </wgt>
<wgt id='1668'> +7.6305596e+04 </wgt>
<wgt id='1669'> +7.6333582e+04 </wgt>
<wgt id='1670'> +7.5802989e+04 </wgt>
<wgt id='1671'> +7.5703423e+04 </wgt>
<wgt id='1672'> +7.6559623e+04 </wgt>
<wgt id='1673'> +7.5709315e+04 </wgt>
<wgt id='1674'> +7.6510700e+04 </wgt>
<wgt id='1675'> +7.6661120e+04 </wgt>
<wgt id='1676'> +7.5904866e+04 </wgt>
<wgt id='1677'> +7.6918237e+04 </wgt>
<wgt id='1678'> +7.5191036e+04 </wgt>
<wgt id='1679'> +7.5626630e+04 </wgt>
<wgt id='1680'> +7.7751282e+04 </wgt>
<wgt id='1681'> +7.6522376e+04 </wgt>
<wgt id='1682'> +7.5588896e+04 </wgt>
<wgt id='1683'> +7.6487416e+04 </wgt>
<wgt id='1684'> +7.6106146e+04 </wgt>
<wgt id='1685'> +7.9004022e+04 </wgt>
<wgt id='1686'> +7.3525109e+04 </wgt>
<wgt id='1687'> +7.6158909e+04 </wgt>
<wgt id='1688'> +7.6221872e+04 </wgt>
<wgt id='1689'> +7.4710652e+04 </wgt>
<wgt id='1690'> +7.8167971e+04 </wgt>
<wgt id='1691'> +7.5808480e+04 </wgt>
<wgt id='1692'> +7.6822314e+04 </wgt>
<wgt id='1693'> +7.6582361e+04 </wgt>
<wgt id='1694'> +7.6635235e+04 </wgt>
<wgt id='1695'> +7.7747839e+04 </wgt>
<wgt id='1696'> +7.5967458e+04 </wgt>
<wgt id='1697'> +7.7574577e+04 </wgt>
<wgt id='1698'> +7.4824922e+04 </wgt>
<wgt id='1699'> +7.6338906e+04 </wgt>
<wgt id='1700'> +7.5768792e+04 </wgt>
<wgt id='1701'> +7.6635511e+04 </wgt>
<wgt id='1702'> +7.6018691e+04 </wgt>
<wgt id='1703'> +7.5243464e+04 </wgt>
<wgt id='1704'> +7.7413502e+04 </wgt>
<wgt id='1705'> +7.6359730e+04 </wgt>
<wgt id='1706'> +7.6196730e+04 </wgt>
<wgt id='1707'> +7.5209794e+04 </wgt>
<wgt id='1708'> +7.6812756e+04 </wgt>
<wgt id='1709'> +7.4858280e+04 </wgt>
<wgt id='1710'> +7.8305740e+04 </wgt>
<wgt id='1711'> +7.6798598e+04 </wgt>
<wgt id='1712'> +7.5880740e+04 </wgt>
<wgt id='1713'> +8.0529786e+04 </wgt>
<wgt id='1714'> +7.3512439e+04 </wgt>
<wgt id='1715'> +7.5124281e+04 </wgt>
<wgt id='1716'> +7.5963491e+04 </wgt>
<wgt id='1717'> +7.1766567e+04 </wgt>
<wgt id='1718'> +7.1937540e+04 </wgt>
<wgt id='1719'> +7.1547334e+04 </wgt>
<wgt id='1720'> +7.1860332e+04 </wgt>
<wgt id='1721'> +7.1680913e+04 </wgt>
<wgt id='1722'> +7.1763714e+04 </wgt>
<wgt id='1723'> +7.1771245e+04 </wgt>
<wgt id='1724'> +7.2082955e+04 </wgt>
<wgt id='1725'> +7.1509267e+04 </wgt>
<wgt id='1726'> +7.1672098e+04 </wgt>
<wgt id='1727'> +7.1864113e+04 </wgt>
<wgt id='1728'> +7.1785561e+04 </wgt>
<wgt id='1729'> +7.1750258e+04 </wgt>
<wgt id='1730'> +7.1117616e+04 </wgt>
<wgt id='1731'> +7.2221030e+04 </wgt>
<wgt id='1732'> +7.2762973e+04 </wgt>
<wgt id='1733'> +7.2762973e+04 </wgt>
<wgt id='1734'> +7.0499821e+04 </wgt>
<wgt id='1735'> +7.2631957e+04 </wgt>
<wgt id='1736'> +7.1593168e+04 </wgt>
<wgt id='1737'> +7.1997152e+04 </wgt>
<wgt id='1738'> +7.1703240e+04 </wgt>
<wgt id='1739'> +7.1802925e+04 </wgt>
<wgt id='1740'> +7.1744232e+04 </wgt>
<wgt id='1741'> +7.1817062e+04 </wgt>
<wgt id='1742'> +7.1841100e+04 </wgt>
<wgt id='1743'> +7.1670075e+04 </wgt>
<wgt id='1744'> +7.1653962e+04 </wgt>
<wgt id='1745'> +7.2070741e+04 </wgt>
<wgt id='1746'> +7.2158392e+04 </wgt>
<wgt id='1747'> +7.1514342e+04 </wgt>
<wgt id='1748'> +7.2098549e+04 </wgt>
<wgt id='1749'> +7.0631988e+04 </wgt>
<wgt id='1750'> +7.1578111e+04 </wgt>
<wgt id='1751'> +7.1964205e+04 </wgt>
<wgt id='1752'> +7.1972102e+04 </wgt>
<wgt id='1753'> +7.1484617e+04 </wgt>
<wgt id='1754'> +7.1620611e+04 </wgt>
<wgt id='1755'> +7.1833425e+04 </wgt>
<wgt id='1756'> +7.1373489e+04 </wgt>
<wgt id='1757'> +7.2751720e+04 </wgt>
<wgt id='1758'> +7.2081695e+04 </wgt>
<wgt id='1759'> +7.1076794e+04 </wgt>
<wgt id='1760'> +7.2164409e+04 </wgt>
<wgt id='1761'> +7.1523007e+04 </wgt>
<wgt id='1762'> +7.1892888e+04 </wgt>
<wgt id='1763'> +7.2182642e+04 </wgt>
<wgt id='1764'> +7.1632835e+04 </wgt>
<wgt id='1765'> +7.2392471e+04 </wgt>
<wgt id='1766'> +7.1588015e+04 </wgt>
<wgt id='1767'> +7.2138245e+04 </wgt>
<wgt id='1768'> +7.1913956e+04 </wgt>
<wgt id='1769'> +7.1644111e+04 </wgt>
<wgt id='1770'> +7.1150347e+04 </wgt>
<wgt id='1771'> +7.2506346e+04 </wgt>
<wgt id='1772'> +7.2050307e+04 </wgt>
<wgt id='1773'> +7.1918150e+04 </wgt>
<wgt id='1774'> +7.1742446e+04 </wgt>
<wgt id='1775'> +7.1784150e+04 </wgt>
<wgt id='1776'> +7.1825977e+04 </wgt>
<wgt id='1777'> +7.1782159e+04 </wgt>
<wgt id='1778'> +7.1918269e+04 </wgt>
<wgt id='1779'> +7.2107214e+04 </wgt>
<wgt id='1780'> +7.1799355e+04 </wgt>
<wgt id='1781'> +7.2190496e+04 </wgt>
<wgt id='1782'> +7.1766567e+04 </wgt>
<wgt id='1783'> +7.1778713e+04 </wgt>
<wgt id='1784'> +7.3250975e+04 </wgt>
<wgt id='1785'> +7.2765224e+04 </wgt>
<wgt id='1786'> +7.2731346e+04 </wgt>
<wgt id='1787'> +7.3027384e+04 </wgt>
<wgt id='1788'> +7.3332593e+04 </wgt>
<wgt id='1789'> +7.3334052e+04 </wgt>
<wgt id='1790'> +7.2926662e+04 </wgt>
<wgt id='1791'> +7.3191052e+04 </wgt>
<wgt id='1792'> +7.3158441e+04 </wgt>
<wgt id='1793'> +7.3980110e+04 </wgt>
<wgt id='1794'> +7.3615504e+04 </wgt>
<wgt id='1795'> +7.2251708e+04 </wgt>
<wgt id='1796'> +7.3348062e+04 </wgt>
<wgt id='1797'> +7.3845671e+04 </wgt>
<wgt id='1798'> +7.3778207e+04 </wgt>
<wgt id='1799'> +7.4445418e+04 </wgt>
<wgt id='1800'> +7.3530352e+04 </wgt>
<wgt id='1801'> +7.3506225e+04 </wgt>
<wgt id='1802'> +7.3400555e+04 </wgt>
<wgt id='1803'> +7.3680150e+04 </wgt>
<wgt id='1804'> +7.1841752e+04 </wgt>
<wgt id='1805'> +7.3294067e+04 </wgt>
<wgt id='1806'> +7.3226569e+04 </wgt>
<wgt id='1807'> +7.3014480e+04 </wgt>
<wgt id='1808'> +7.2331663e+04 </wgt>
<wgt id='1809'> +7.3070136e+04 </wgt>
<wgt id='1810'> +7.3881465e+04 </wgt>
<wgt id='1811'> +7.2486520e+04 </wgt>
<wgt id='1812'> +7.3148884e+04 </wgt>
<wgt id='1813'> +7.3252006e+04 </wgt>
<wgt id='1814'> +7.3473412e+04 </wgt>
<wgt id='1815'> +7.2827549e+04 </wgt>
<wgt id='1816'> +7.3412636e+04 </wgt>
<wgt id='1817'> +7.3712910e+04 </wgt>
<wgt id='1818'> +7.3033055e+04 </wgt>
<wgt id='1819'> +7.3345573e+04 </wgt>
<wgt id='1820'> +7.3251639e+04 </wgt>
<wgt id='1821'> +7.3108286e+04 </wgt>
<wgt id='1822'> +7.3177820e+04 </wgt>
<wgt id='1823'> +7.3175675e+04 </wgt>
<wgt id='1824'> +7.3090940e+04 </wgt>
<wgt id='1825'> +7.3719982e+04 </wgt>
<wgt id='1826'> +7.3910217e+04 </wgt>
<wgt id='1827'> +7.6447164e+04 </wgt>
<wgt id='1828'> +7.6545656e+04 </wgt>
<wgt id='1829'> +7.6355342e+04 </wgt>
<wgt id='1830'> +7.6754706e+04 </wgt>
<wgt id='1831'> +7.6144535e+04 </wgt>
<wgt id='1832'> +7.6111479e+04 </wgt>
<wgt id='1833'> +7.6789419e+04 </wgt>
<wgt id='1834'> +7.5928688e+04 </wgt>
<wgt id='1835'> +7.6948022e+04 </wgt>
<wgt id='1836'> +7.6927331e+04 </wgt>
<wgt id='1837'> +7.5934022e+04 </wgt>
<wgt id='1838'> +7.7136893e+04 </wgt>
<wgt id='1839'> +7.5759388e+04 </wgt>
<wgt id='1840'> +7.7789708e+04 </wgt>
<wgt id='1841'> +7.5152913e+04 </wgt>
<wgt id='1842'> +7.7157255e+04 </wgt>
<wgt id='1843'> +7.6483762e+04 </wgt>
<wgt id='1844'> +7.5571861e+04 </wgt>
<wgt id='1845'> +7.7302895e+04 </wgt>
<wgt id='1846'> +7.6134958e+04 </wgt>
<wgt id='1847'> +7.6732911e+04 </wgt>
<wgt id='1848'> +7.5470035e+04 </wgt>
<wgt id='1849'> +7.7329754e+04 </wgt>
<wgt id='1850'> +7.6792352e+04 </wgt>
<wgt id='1851'> +7.5587448e+04 </wgt>
<wgt id='1852'> +7.5592017e+04 </wgt>
<wgt id='1853'> +7.6789323e+04 </wgt>
<wgt id='1854'> +7.6432803e+04 </wgt>
<wgt id='1855'> +7.6566105e+04 </wgt>
<wgt id='1856'> +7.4474327e+04 </wgt>
<wgt id='1857'> +7.4469721e+04 </wgt>
<wgt id='1858'> +7.4483385e+04 </wgt>
<wgt id='1859'> +7.4416404e+04 </wgt>
<wgt id='1860'> +7.4473965e+04 </wgt>
<wgt id='1861'> +7.4422305e+04 </wgt>
<wgt id='1862'> +7.4307380e+04 </wgt>
<wgt id='1863'> +7.4321108e+04 </wgt>
<wgt id='1864'> +7.4158730e+04 </wgt>
<wgt id='1865'> +7.4233031e+04 </wgt>
<wgt id='1866'> +7.4762640e+04 </wgt>
<wgt id='1867'> +7.4883765e+04 </wgt>
<wgt id='1868'> +7.4479550e+04 </wgt>
<wgt id='1869'> +7.4634144e+04 </wgt>
<wgt id='1870'> +7.4327721e+04 </wgt>
<wgt id='1871'> +7.4419175e+04 </wgt>
<wgt id='1872'> +7.4575972e+04 </wgt>
<wgt id='1873'> +7.4425654e+04 </wgt>
<wgt id='1874'> +7.4503433e+04 </wgt>
<wgt id='1875'> +7.4704374e+04 </wgt>
<wgt id='1876'> +7.4139738e+04 </wgt>
<wgt id='1877'> +7.4331537e+04 </wgt>
<wgt id='1878'> +7.4479800e+04 </wgt>
<wgt id='1879'> +7.4443827e+04 </wgt>
<wgt id='1880'> +7.4604728e+04 </wgt>
<wgt id='1881'> +7.4615006e+04 </wgt>
<wgt id='1882'> +7.4670134e+04 </wgt>
<wgt id='1883'> +7.4256633e+04 </wgt>
<wgt id='1884'> +7.4044985e+04 </wgt>
<wgt id='1885'> +7.3686705e+04 </wgt>
<wgt id='1886'> +7.2297713e+04 </wgt>
<wgt id='1887'> +7.6744274e+04 </wgt>
<wgt id='1888'> +8.4980092e+04 </wgt>
<wgt id='1889'> +9.5721758e+04 </wgt>
</rwgt>
</event>
<event npLO=" -1 " npNLO=" 0 ">
 5      0 +7.4519530e+04 1.90538430e+01 7.55820760e-03 1.19233750e-01
        2 -1    0    0  501    0 +0.0000000000e+00 +0.0000000000e+00 +2.3078730688e+03 2.3078730688e+03 0.0000000000e+00 0.0000e+00 -1.0000e+00
       -1 -1    0    0    0  501 +0.0000000000e+00 +0.0000000000e+00 -7.0450438839e-01 7.0450438839e-01 0.0000000000e+00 0.0000e+00 1.0000e+00
       24  2    1    2    0    0 +0.0000000000e+00 +0.0000000000e+00 +2.3071685645e+03 2.3085775732e+03 8.0645066925e+01 0.0000e+00 0.0000e+00
      -13  1    3    3    0    0 +2.0078936333e+01 -3.0769264895e+01 +6.7801088284e+02 6.7900564695e+02 0.0000000000e+00 0.0000e+00 1.0000e+00
       14  1    3    3    0    0 -2.0078936333e+01 +3.0769264895e+01 +1.6291576816e+03 1.6295719263e+03 0.0000000000e+00 0.0000e+00 -1.0000e+00
#aMCatNLO 1  0  0  1  2 0.33786212E+02 0.00000000E+00 -9  5  0 0.00000000E+00 0.00000000E+00 0.00000000E+00 0.00000000E+00 0.00000000E+00
<rwgt>
<wgt id='1001'> +7.4519530e+04 </wgt>
<wgt id='1002'> +7.0708935e+04 </wgt>
<wgt id='1003'> +7.9267032e+04 </wgt>
<wgt id='1004'> +9.4865572e+04 </wgt>
<wgt id='1005'> +8.9339784e+04 </wgt>
<wgt id='1006'> +1.0174999e+05 </wgt>
<wgt id='1007'> +5.5592487e+04 </wgt>
<wgt id='1008'> +5.3318243e+04 </wgt>
<wgt id='1009'> +5.8425899e+04 </wgt>
<wgt id='1010'> +7.4519530e+04 </wgt>
<wgt id='1011'> +7.4449938e+04 </wgt>
<wgt id='1012'> +7.5242453e+04 </wgt>
<wgt id='1013'> +7.3605418e+04 </wgt>
<wgt id='1014'> +7.4339520e+04 </wgt>
<wgt id='1015'> +7.4177671e+04 </wgt>
<wgt id='1016'> +7.4633281e+04 </wgt>
<wgt id='1017'> +7.4371207e+04 </wgt>
<wgt id='1018'> +7.4713671e+04 </wgt>
<wgt id='1019'> +7.3817086e+04 </wgt>
<wgt id='1020'> +7.4380151e+04 </wgt>
<wgt id='1021'> +7.4690994e+04 </wgt>
<wgt id='1022'> +7.4289255e+04 </wgt>
<wgt id='1023'> +7.4744111e+04 </wgt>
<wgt id='1024'> +7.4390713e+04 </wgt>
<wgt id='1025'> +7.4545803e+04 </wgt>
<wgt id='1026'> +7.4375558e+04 </wgt>
<wgt id='1027'> +7.4338386e+04 </wgt>
<wgt id='1028'> +7.4590536e+04 </wgt>
<wgt id='1029'> +7.4798392e+04 </wgt>
<wgt id='1030'> +7.5000166e+04 </wgt>
<wgt id='1031'> +7.4694151e+04 </wgt>
<wgt id='1032'> +7.4488639e+04 </wgt>
<wgt id='1033'> +7.4374766e+04 </wgt>
<wgt id='1034'> +7.4646242e+04 </wgt>
<wgt id='1035'> +7.4779008e+04 </wgt>
<wgt id='1036'> +7.4491463e+04 </wgt>
<wgt id='1037'> +7.4234501e+04 </wgt>
<wgt id='1038'> +7.4757228e+04 </wgt>
<wgt id='1039'> +7.5003636e+04 </wgt>
<wgt id='1040'> +7.4383718e+04 </wgt>
<wgt id='1041'> +7.4885391e+04 </wgt>
<wgt id='1042'> +7.4740826e+04 </wgt>
<wgt id='1043'> +7.4516392e+04 </wgt>
<wgt id='1044'> +7.4706453e+04 </wgt>
<wgt id='1045'> +7.4304367e+04 </wgt>
<wgt id='1046'> +7.4067051e+04 </wgt>
<wgt id='1047'> +7.4685505e+04 </wgt>
<wgt id='1048'> +7.4382016e+04 </wgt>
<wgt id='1049'> +7.4551943e+04 </wgt>
<wgt id='1050'> +7.4405144e+04 </wgt>
<wgt id='1051'> +7.4406779e+04 </wgt>
<wgt id='1052'> +7.4443151e+04 </wgt>
<wgt id='1053'> +7.4419677e+04 </wgt>
<wgt id='1054'> +7.4506485e+04 </wgt>
<wgt id='1055'> +7.4464990e+04 </wgt>
<wgt id='1056'> +7.4659795e+04 </wgt>
<wgt id='1057'> +7.4316401e+04 </wgt>
<wgt id='1058'> +7.4526194e+04 </wgt>
<wgt id='1059'> +7.4548970e+04 </wgt>
<wgt id='1060'> +7.4615599e+04 </wgt>
<wgt id='1061'> +7.4495418e+04 </wgt>
<wgt id='1062'> +7.4705321e+04 </wgt>
<wgt id='1063'> +7.4591626e+04 </wgt>
<wgt id='1064'> +7.4443302e+04 </wgt>
<wgt id='1065'> +7.4639154e+04 </wgt>
<wgt id='1066'> +7.4541901e+04 </wgt>
<wgt id='1067'> +7.4386564e+04 </wgt>
<wgt id='1068'> +7.4513440e+04 </wgt>
<wgt id='1069'> +7.4317115e+04 </wgt>
<wgt id='1070'> +7.4380491e+04 </wgt>
<wgt id='1071'> +7.4650806e+04 </wgt>
<wgt id='1072'> +7.4547833e+04 </wgt>
<wgt id='1073'> +7.4448557e+04 </wgt>
<wgt id='1074'> +7.4624236e+04 </wgt>
<wgt id='1075'> +7.4316543e+04 </wgt>
<wgt id='1076'> +7.4367666e+04 </wgt>
<wgt id='1077'> +7.4640197e+04 </wgt>
<wgt id='1078'> +7.4615833e+04 </wgt>
<wgt id='1079'> +7.4561697e+04 </wgt>
<wgt id='1080'> +7.4637814e+04 </wgt>
<wgt id='1081'> +7.4690040e+04 </wgt>
<wgt id='1082'> +7.4487619e+04 </wgt>
<wgt id='1083'> +7.4519604e+04 </wgt>
<wgt id='1084'> +7.4673957e+04 </wgt>
<wgt id='1085'> +7.4620545e+04 </wgt>
<wgt id='1086'> +7.4544466e+04 </wgt>
<wgt id='1087'> +7.4430777e+04 </wgt>
<wgt id='1088'> +7.4583352e+04 </wgt>
<wgt id='1089'> +7.4489565e+04 </wgt>
<wgt id='1090'> +7.4555355e+04 </wgt>
<wgt id='1091'> +7.4459924e+04 </wgt>
<wgt id='1092'> +7.4574037e+04 </wgt>
<wgt id='1093'> +7.4492683e+04 </wgt>
<wgt id='1094'> +7.4575138e+04 </wgt>
<wgt id='1095'> +7.4546624e+04 </wgt>
<wgt id='1096'> +7.4434628e+04 </wgt>
<wgt id='1097'> +7.4470465e+04 </wgt>
<wgt id='1098'> +7.4518195e+04 </wgt>
<wgt id='1099'> +7.4449590e+04 </wgt>
<wgt id='1100'> +7.4577772e+04 </wgt>
<wgt id='1101'> +7.4525969e+04 </wgt>
<wgt id='1102'> +7.4554225e+04 </wgt>
<wgt id='1103'> +7.4469978e+04 </wgt>
<wgt id='1104'> +7.4537000e+04 </wgt>
<wgt id='1105'> +7.4510326e+04 </wgt>
<wgt id='1106'> +7.4497349e+04 </wgt>
<wgt id='1107'> +7.4535530e+04 </wgt>
<wgt id='1108'> +7.4469509e+04 </wgt>
<wgt id='1109'> +7.4526725e+04 </wgt>
<wgt id='1110'> +7.4519528e+04 </wgt>
<wgt id='1111'> +7.3027228e+04 </wgt>
<wgt id='1112'> +7.5424355e+04 </wgt>
<wgt id='1113'> +7.4519528e+04 </wgt>
<wgt id='1114'> +7.3492998e+04 </wgt>
<wgt id='1115'> +7.6187761e+04 </wgt>
<wgt id='1116'> +7.2975942e+04 </wgt>
<wgt id='1117'> +7.5885890e+04 </wgt>
<wgt id='1118'> +7.4567041e+04 </wgt>
<wgt id='1119'> +7.3575849e+04 </wgt>
<wgt id='1120'> +7.6609906e+04 </wgt>
<wgt id='1121'> +7.3937709e+04 </wgt>
<wgt id='1122'> +7.4126027e+04 </wgt>
<wgt id='1123'> +7.0905056e+04 </wgt>
<wgt id='1124'> +7.3706218e+04 </wgt>
<wgt id='1125'> +7.4340315e+04 </wgt>
<wgt id='1126'> +7.4075792e+04 </wgt>
<wgt id='1127'> +7.3418719e+04 </wgt>
<wgt id='1128'> +7.5281943e+04 </wgt>
<wgt id='1129'> +7.4127020e+04 </wgt>
<wgt id='1130'> +7.4570421e+04 </wgt>
<wgt id='1131'> +7.3484113e+04 </wgt>
<wgt id='1132'> +7.5720606e+04 </wgt>
<wgt id='1133'> +7.7166447e+04 </wgt>
<wgt id='1134'> +7.8060069e+04 </wgt>
<wgt id='1135'> +7.8033948e+04 </wgt>
<wgt id='1136'> +7.8619059e+04 </wgt>
<wgt id='1137'> +7.3837033e+04 </wgt>
<wgt id='1138'> +7.6200113e+04 </wgt>
<wgt id='1139'> +7.1872126e+04 </wgt>
<wgt id='1140'> +7.6255410e+04 </wgt>
<wgt id='1141'> +7.5125128e+04 </wgt>
<wgt id='1142'> +7.4013135e+04 </wgt>
<wgt id='1143'> +7.5468469e+04 </wgt>
<wgt id='1144'> +7.4229263e+04 </wgt>
<wgt id='1145'> +7.4388834e+04 </wgt>
<wgt id='1146'> +7.5415062e+04 </wgt>
<wgt id='1147'> +7.4922431e+04 </wgt>
<wgt id='1148'> +7.2527963e+04 </wgt>
<wgt id='1149'> +7.5479460e+04 </wgt>
<wgt id='1150'> +7.3116752e+04 </wgt>
<wgt id='1151'> +7.4457884e+04 </wgt>
<wgt id='1152'> +7.5525208e+04 </wgt>
<wgt id='1153'> +7.5320292e+04 </wgt>
<wgt id='1154'> +7.3729498e+04 </wgt>
<wgt id='1155'> +7.2646571e+04 </wgt>
<wgt id='1156'> +7.4558565e+04 </wgt>
<wgt id='1157'> +7.5441664e+04 </wgt>
<wgt id='1158'> +7.1220214e+04 </wgt>
<wgt id='1159'> +7.3167708e+04 </wgt>
<wgt id='1160'> +7.7410242e+04 </wgt>
<wgt id='1161'> +7.0697031e+04 </wgt>
<wgt id='1162'> +7.7731426e+04 </wgt>
<wgt id='1163'> +7.3308171e+04 </wgt>
<wgt id='1164'> +7.2443863e+04 </wgt>
<wgt id='1165'> +7.6872983e+04 </wgt>
<wgt id='1166'> +7.4495153e+04 </wgt>
<wgt id='1167'> +7.6434261e+04 </wgt>
<wgt id='1168'> +7.4089005e+04 </wgt>
<wgt id='1169'> +7.0974189e+04 </wgt>
<wgt id='1170'> +7.3963528e+04 </wgt>
<wgt id='1171'> +7.4020956e+04 </wgt>
<wgt id='1172'> +7.4233959e+04 </wgt>
<wgt id='1173'> +7.2704068e+04 </wgt>
<wgt id='1174'> +7.7101304e+04 </wgt>
<wgt id='1175'> +7.4978119e+04 </wgt>
<wgt id='1176'> +7.6122661e+04 </wgt>
<wgt id='1177'> +7.0710972e+04 </wgt>
<wgt id='1178'> +7.6249850e+04 </wgt>
<wgt id='1179'> +7.0467149e+04 </wgt>
<wgt id='1180'> +7.4590508e+04 </wgt>
<wgt id='1181'> +7.4651810e+04 </wgt>
<wgt id='1182'> +7.5600321e+04 </wgt>
<wgt id='1183'> +7.8405697e+04 </wgt>
<wgt id='1184'> +7.4791416e+04 </wgt>
<wgt id='1185'> +6.9406014e+04 </wgt>
<wgt id='1186'> +7.2338164e+04 </wgt>
<wgt id='1187'> +7.6635502e+04 </wgt>
<wgt id='1188'> +7.2093460e+04 </wgt>
<wgt id='1189'> +7.5011776e+04 </wgt>
<wgt id='1190'> +7.5830857e+04 </wgt>
<wgt id='1191'> +7.6879828e+04 </wgt>
<wgt id='1192'> +7.0525599e+04 </wgt>
<wgt id='1193'> +7.1307699e+04 </wgt>
<wgt id='1194'> +7.4890911e+04 </wgt>
<wgt id='1195'> +7.4127020e+04 </wgt>
<wgt id='1196'> +7.6058894e+04 </wgt>
<wgt id='1197'> +7.4808643e+04 </wgt>
<wgt id='1198'> +7.7634652e+04 </wgt>
<wgt id='1199'> +7.4945639e+04 </wgt>
<wgt id='1200'> +7.4948322e+04 </wgt>
<wgt id='1201'> +7.6178966e+04 </wgt>
<wgt id='1202'> +7.3391036e+04 </wgt>
<wgt id='1203'> +7.5312323e+04 </wgt>
<wgt id='1204'> +7.7472764e+04 </wgt>
<wgt id='1205'> +7.7306561e+04 </wgt>
<wgt id='1206'> +7.4408662e+04 </wgt>
<wgt id='1207'> +7.5848872e+04 </wgt>
<wgt id='1208'> +7.3091731e+04 </wgt>
<wgt id='1209'> +7.6743491e+04 </wgt>
<wgt id='1210'> +6.8265357e+04 </wgt>
<wgt id='1211'> +7.4617836e+04 </wgt>
<wgt id='1212'> +7.2321320e+04 </wgt>
<wgt id='1213'> +7.3930882e+04 </wgt>
<wgt id='1214'> +7.4426059e+04 </wgt>
<wgt id='1215'> +6.7660953e+04 </wgt>
<wgt id='1216'> +6.8756792e+04 </wgt>
<wgt id='1217'> +7.0317553e+04 </wgt>
<wgt id='1218'> +7.1958347e+04 </wgt>
<wgt id='1219'> +7.4031999e+04 </wgt>
<wgt id='1220'> +7.4982327e+04 </wgt>
<wgt id='1221'> +7.7399289e+04 </wgt>
<wgt id='1222'> +7.8567225e+04 </wgt>
<wgt id='1223'> +7.2397466e+04 </wgt>
<wgt id='1224'> +7.1462959e+04 </wgt>
<wgt id='1225'> +7.3522336e+04 </wgt>
<wgt id='1226'> +7.2038547e+04 </wgt>
<wgt id='1227'> +7.2435165e+04 </wgt>
<wgt id='1228'> +7.2728346e+04 </wgt>
<wgt id='1229'> +7.1845760e+04 </wgt>
<wgt id='1230'> +7.2863408e+04 </wgt>
<wgt id='1231'> +7.3255560e+04 </wgt>
<wgt id='1232'> +7.2602676e+04 </wgt>
<wgt id='1233'> +7.2467618e+04 </wgt>
<wgt id='1234'> +7.2364342e+04 </wgt>
<wgt id='1235'> +7.2624612e+04 </wgt>
<wgt id='1236'> +7.2713766e+04 </wgt>
<wgt id='1237'> +7.2023892e+04 </wgt>
<wgt id='1238'> +7.2742561e+04 </wgt>
<wgt id='1239'> +7.2682197e+04 </wgt>
<wgt id='1240'> +7.2473669e+04 </wgt>
<wgt id='1241'> +7.2518639e+04 </wgt>
<wgt id='1242'> +7.2372995e+04 </wgt>
<wgt id='1243'> +7.2231785e+04 </wgt>
<wgt id='1244'> +7.2421056e+04 </wgt>
<wgt id='1245'> +7.2482522e+04 </wgt>
<wgt id='1246'> +7.2536954e+04 </wgt>
<wgt id='1247'> +7.2402857e+04 </wgt>
<wgt id='1248'> +7.2191340e+04 </wgt>
<wgt id='1249'> +7.2391664e+04 </wgt>
<wgt id='1250'> +7.2273236e+04 </wgt>
<wgt id='1251'> +7.2615995e+04 </wgt>
<wgt id='1252'> +7.2570303e+04 </wgt>
<wgt id='1253'> +7.1805748e+04 </wgt>
<wgt id='1254'> +7.2012504e+04 </wgt>
<wgt id='1255'> +7.2502982e+04 </wgt>
<wgt id='1256'> +7.2419984e+04 </wgt>
<wgt id='1257'> +7.2347223e+04 </wgt>
<wgt id='1258'> +7.2408005e+04 </wgt>
<wgt id='1259'> +7.2527596e+04 </wgt>
<wgt id='1260'> +7.2173524e+04 </wgt>
<wgt id='1261'> +7.2468999e+04 </wgt>
<wgt id='1262'> +7.2401165e+04 </wgt>
<wgt id='1263'> +7.2432959e+04 </wgt>
<wgt id='1264'> +7.2426927e+04 </wgt>
<wgt id='1265'> +7.2496021e+04 </wgt>
<wgt id='1266'> +7.2240384e+04 </wgt>
<wgt id='1267'> +7.2421705e+04 </wgt>
<wgt id='1268'> +7.2479991e+04 </wgt>
<wgt id='1269'> +7.2289318e+04 </wgt>
<wgt id='1270'> +7.2290544e+04 </wgt>
<wgt id='1271'> +7.2437457e+04 </wgt>
<wgt id='1272'> +7.2452844e+04 </wgt>
<wgt id='1273'> +7.2273672e+04 </wgt>
<wgt id='1274'> +7.2707836e+04 </wgt>
<wgt id='1275'> +7.2635590e+04 </wgt>
<wgt id='1276'> +7.2351055e+04 </wgt>
<wgt id='1277'> +7.2461410e+04 </wgt>
<wgt id='1278'> +7.2093919e+04 </wgt>
<wgt id='1279'> +7.2689533e+04 </wgt>
<wgt id='1280'> +7.2323277e+04 </wgt>
<wgt id='1281'> +7.2497159e+04 </wgt>
<wgt id='1282'> +7.2673100e+04 </wgt>
<wgt id='1283'> +7.2331962e+04 </wgt>
<wgt id='1284'> +7.2283116e+04 </wgt>
<wgt id='1285'> +7.2425681e+04 </wgt>
<wgt id='1286'> +7.2275333e+04 </wgt>
<wgt id='1287'> +7.2289472e+04 </wgt>
<wgt id='1288'> +7.2455404e+04 </wgt>
<wgt id='1289'> +7.2474997e+04 </wgt>
<wgt id='1290'> +7.2516979e+04 </wgt>
<wgt id='1291'> +7.2375962e+04 </wgt>
<wgt id='1292'> +7.2270810e+04 </wgt>
<wgt id='1293'> +7.2332063e+04 </wgt>
<wgt id='1294'> +7.2323340e+04 </wgt>
<wgt id='1295'> +7.2347458e+04 </wgt>
<wgt id='1296'> +7.2286502e+04 </wgt>
<wgt id='1297'> +7.2250989e+04 </wgt>
<wgt id='1298'> +7.2387000e+04 </wgt>
<wgt id='1299'> +7.2337435e+04 </wgt>
<wgt id='1300'> +7.2617747e+04 </wgt>
<wgt id='1301'> +7.2468967e+04 </wgt>
<wgt id='1302'> +7.2203766e+04 </wgt>
<wgt id='1303'> +7.2281656e+04 </wgt>
<wgt id='1304'> +7.2281717e+04 </wgt>
<wgt id='1305'> +7.2318098e+04 </wgt>
<wgt id='1306'> +7.2259006e+04 </wgt>
<wgt id='1307'> +7.2417202e+04 </wgt>
<wgt id='1308'> +7.2328112e+04 </wgt>
<wgt id='1309'> +7.2433022e+04 </wgt>
<wgt id='1310'> +7.2423901e+04 </wgt>
<wgt id='1311'> +7.2364513e+04 </wgt>
<wgt id='1312'> +7.2370978e+04 </wgt>
<wgt id='1313'> +7.2295397e+04 </wgt>
<wgt id='1314'> +7.2358120e+04 </wgt>
<wgt id='1315'> +7.2397565e+04 </wgt>
<wgt id='1316'> +7.2348359e+04 </wgt>
<wgt id='1317'> +7.2464887e+04 </wgt>
<wgt id='1318'> +7.2351905e+04 </wgt>
<wgt id='1319'> +7.2405926e+04 </wgt>
<wgt id='1320'> +7.2459304e+04 </wgt>
<wgt id='1321'> +7.2389211e+04 </wgt>
<wgt id='1322'> +7.2253983e+04 </wgt>
<wgt id='1323'> +7.2347937e+04 </wgt>
<wgt id='1324'> +7.0707540e+04 </wgt>
<wgt id='1325'> +7.3646995e+04 </wgt>
<wgt id='1326'> +7.5285278e+04 </wgt>
<wgt id='1327'> +7.4334896e+04 </wgt>
<wgt id='1328'> +7.4176203e+04 </wgt>
<wgt id='1329'> +7.4352960e+04 </wgt>
<wgt id='1330'> +7.4573423e+04 </wgt>
<wgt id='1331'> +7.5022166e+04 </wgt>
<wgt id='1332'> +7.5050705e+04 </wgt>
<wgt id='1333'> +7.5238896e+04 </wgt>
<wgt id='1334'> +7.2647819e+04 </wgt>
<wgt id='1335'> +7.2423171e+04 </wgt>
<wgt id='1336'> +7.4970325e+04 </wgt>
<wgt id='1337'> +7.4694295e+04 </wgt>
<wgt id='1338'> +7.3101857e+04 </wgt>
<wgt id='1339'> +7.4578335e+04 </wgt>
<wgt id='1340'> +7.4219919e+04 </wgt>
<wgt id='1341'> +7.2615500e+04 </wgt>
<wgt id='1342'> +7.4992173e+04 </wgt>
<wgt id='1343'> +7.3685240e+04 </wgt>
<wgt id='1344'> +7.1778551e+04 </wgt>
<wgt id='1345'> +7.5940540e+04 </wgt>
<wgt id='1346'> +7.3712775e+04 </wgt>
<wgt id='1347'> +7.5127776e+04 </wgt>
<wgt id='1348'> +7.4439737e+04 </wgt>
<wgt id='1349'> +7.5296885e+04 </wgt>
<wgt id='1350'> +7.1471851e+04 </wgt>
<wgt id='1351'> +7.3240886e+04 </wgt>
<wgt id='1352'> +7.3367233e+04 </wgt>
<wgt id='1353'> +7.4339141e+04 </wgt>
<wgt id='1354'> +7.4938891e+04 </wgt>
<wgt id='1355'> +7.4713542e+04 </wgt>
<wgt id='1356'> +7.4105763e+04 </wgt>
<wgt id='1357'> +7.3721035e+04 </wgt>
<wgt id='1358'> +7.3807284e+04 </wgt>
<wgt id='1359'> +7.4839426e+04 </wgt>
<wgt id='1360'> +7.2685699e+04 </wgt>
<wgt id='1361'> +7.6484166e+04 </wgt>
<wgt id='1362'> +7.4913422e+04 </wgt>
<wgt id='1363'> +7.5338762e+04 </wgt>
<wgt id='1364'> +7.4606824e+04 </wgt>
<wgt id='1365'> +7.2483783e+04 </wgt>
<wgt id='1366'> +7.2914993e+04 </wgt>
<wgt id='1367'> +7.4187950e+04 </wgt>
<wgt id='1368'> +7.4701430e+04 </wgt>
<wgt id='1369'> +7.3174150e+04 </wgt>
<wgt id='1370'> +7.4614950e+04 </wgt>
<wgt id='1371'> +7.3033037e+04 </wgt>
<wgt id='1372'> +7.2994975e+04 </wgt>
<wgt id='1373'> +7.3268120e+04 </wgt>
<wgt id='1374'> +7.5490314e+04 </wgt>
<wgt id='1375'> +7.5106508e+04 </wgt>
<wgt id='1376'> +7.5219745e+04 </wgt>
<wgt id='1377'> +7.3467055e+04 </wgt>
<wgt id='1378'> +7.2849543e+04 </wgt>
<wgt id='1379'> +7.6545260e+04 </wgt>
<wgt id='1380'> +7.2367698e+04 </wgt>
<wgt id='1381'> +7.4997290e+04 </wgt>
<wgt id='1382'> +7.2985958e+04 </wgt>
<wgt id='1383'> +7.5159695e+04 </wgt>
<wgt id='1384'> +7.4286213e+04 </wgt>
<wgt id='1385'> +7.2817892e+04 </wgt>
<wgt id='1386'> +7.5366107e+04 </wgt>
<wgt id='1387'> +7.4504194e+04 </wgt>
<wgt id='1388'> +7.5717541e+04 </wgt>
<wgt id='1389'> +7.3643833e+04 </wgt>
<wgt id='1390'> +7.1858671e+04 </wgt>
<wgt id='1391'> +7.4178213e+04 </wgt>
<wgt id='1392'> +7.3540771e+04 </wgt>
<wgt id='1393'> +7.2793597e+04 </wgt>
<wgt id='1394'> +7.2483783e+04 </wgt>
<wgt id='1395'> +7.4082977e+04 </wgt>
<wgt id='1396'> +7.2333556e+04 </wgt>
<wgt id='1397'> +7.4728248e+04 </wgt>
<wgt id='1398'> +7.4169418e+04 </wgt>
<wgt id='1399'> +7.4873315e+04 </wgt>
<wgt id='1400'> +7.6749213e+04 </wgt>
<wgt id='1401'> +7.5125164e+04 </wgt>
<wgt id='1402'> +7.5107834e+04 </wgt>
<wgt id='1403'> +7.2702526e+04 </wgt>
<wgt id='1404'> +7.6570091e+04 </wgt>
<wgt id='1405'> +7.2170481e+04 </wgt>
<wgt id='1406'> +7.3564564e+04 </wgt>
<wgt id='1407'> +7.3818271e+04 </wgt>
<wgt id='1408'> +7.6604627e+04 </wgt>
<wgt id='1409'> +7.3208062e+04 </wgt>
<wgt id='1410'> +7.5062981e+04 </wgt>
<wgt id='1411'> +7.4572228e+04 </wgt>
<wgt id='1412'> +7.6282421e+04 </wgt>
<wgt id='1413'> +7.4167145e+04 </wgt>
<wgt id='1414'> +7.4464521e+04 </wgt>
<wgt id='1415'> +7.3426808e+04 </wgt>
<wgt id='1416'> +7.5217557e+04 </wgt>
<wgt id='1417'> +7.3646033e+04 </wgt>
<wgt id='1418'> +7.4721651e+04 </wgt>
<wgt id='1419'> +7.6747072e+04 </wgt>
<wgt id='1420'> +7.3404040e+04 </wgt>
<wgt id='1421'> +7.4641971e+04 </wgt>
<wgt id='1422'> +7.3936523e+04 </wgt>
<wgt id='1423'> +7.3532267e+04 </wgt>
<wgt id='1424'> +7.4396869e+04 </wgt>
<wgt id='1425'> +7.1998775e+04 </wgt>
<wgt id='1426'> +7.4079404e+04 </wgt>
<wgt id='1427'> +7.5082887e+04 </wgt>
<wgt id='1428'> +7.4445050e+04 </wgt>
<wgt id='1429'> +7.3683653e+04 </wgt>
<wgt id='1430'> +7.4570386e+04 </wgt>
<wgt id='1431'> +7.4162330e+04 </wgt>
<wgt id='1432'> +7.5054865e+04 </wgt>
<wgt id='1433'> +7.4080981e+04 </wgt>
<wgt id='1434'> +7.3885090e+04 </wgt>
<wgt id='1435'> +7.4048316e+04 </wgt>
<wgt id='1436'> +7.4095216e+04 </wgt>
<wgt id='1437'> +7.4215034e+04 </wgt>
<wgt id='1438'> +7.4226329e+04 </wgt>
<wgt id='1439'> +7.3984216e+04 </wgt>
<wgt id='1440'> +7.4266249e+04 </wgt>
<wgt id='1441'> +7.4194013e+04 </wgt>
<wgt id='1442'> +7.4260369e+04 </wgt>
<wgt id='1443'> +7.4144855e+04 </wgt>
<wgt id='1444'> +7.4006766e+04 </wgt>
<wgt id='1445'> +7.4064453e+04 </wgt>
<wgt id='1446'> +7.4254478e+04 </wgt>
<wgt id='1447'> +7.3916909e+04 </wgt>
<wgt id='1448'> +7.4323974e+04 </wgt>
<wgt id='1449'> +7.4060016e+04 </wgt>
<wgt id='1450'> +7.3780872e+04 </wgt>
<wgt id='1451'> +7.4222116e+04 </wgt>
<wgt id='1452'> +7.4286872e+04 </wgt>
<wgt id='1453'> +7.4074874e+04 </wgt>
<wgt id='1454'> +7.4111106e+04 </wgt>
<wgt id='1455'> +7.4231096e+04 </wgt>
<wgt id='1456'> +7.3834197e+04 </wgt>
<wgt id='1457'> +7.4295804e+04 </wgt>
<wgt id='1458'> +7.4248347e+04 </wgt>
<wgt id='1459'> +7.4239081e+04 </wgt>
<wgt id='1460'> +7.4273251e+04 </wgt>
<wgt id='1461'> +7.4308389e+04 </wgt>
<wgt id='1462'> +7.4127242e+04 </wgt>
<wgt id='1463'> +7.4232791e+04 </wgt>
<wgt id='1464'> +7.4297528e+04 </wgt>
<wgt id='1465'> +7.4181717e+04 </wgt>
<wgt id='1466'> +7.4112743e+04 </wgt>
<wgt id='1467'> +7.4218461e+04 </wgt>
<wgt id='1468'> +7.4196188e+04 </wgt>
<wgt id='1469'> +7.4213606e+04 </wgt>
<wgt id='1470'> +7.4170992e+04 </wgt>
<wgt id='1471'> +7.4084846e+04 </wgt>
<wgt id='1472'> +7.4109534e+04 </wgt>
<wgt id='1473'> +7.4065987e+04 </wgt>
<wgt id='1474'> +7.4317404e+04 </wgt>
<wgt id='1475'> +7.4186992e+04 </wgt>
<wgt id='1476'> +7.4126327e+04 </wgt>
<wgt id='1477'> +7.4271792e+04 </wgt>
<wgt id='1478'> +7.4111697e+04 </wgt>
<wgt id='1479'> +7.4247761e+04 </wgt>
<wgt id='1480'> +7.4086448e+04 </wgt>
<wgt id='1481'> +7.4244471e+04 </wgt>
<wgt id='1482'> +7.3683653e+04 </wgt>
<wgt id='1483'> +7.4570386e+04 </wgt>
<wgt id='1484'> +7.9920865e+04 </wgt>
<wgt id='1485'> +7.9756517e+04 </wgt>
<wgt id='1486'> +8.1148949e+04 </wgt>
<wgt id='1487'> +7.7501494e+04 </wgt>
<wgt id='1488'> +7.8433448e+04 </wgt>
<wgt id='1489'> +8.0563063e+04 </wgt>
<wgt id='1490'> +7.6868668e+04 </wgt>
<wgt id='1491'> +8.0194231e+04 </wgt>
<wgt id='1492'> +7.6730639e+04 </wgt>
<wgt id='1493'> +8.0926074e+04 </wgt>
<wgt id='1494'> +7.9039214e+04 </wgt>
<wgt id='1495'> +7.7548094e+04 </wgt>
<wgt id='1496'> +7.9213015e+04 </wgt>
<wgt id='1497'> +7.9941788e+04 </wgt>
<wgt id='1498'> +8.1234072e+04 </wgt>
<wgt id='1499'> +8.1002207e+04 </wgt>
<wgt id='1500'> +7.8711542e+04 </wgt>
<wgt id='1501'> +7.9427456e+04 </wgt>
<wgt id='1502'> +8.0408734e+04 </wgt>
<wgt id='1503'> +7.8883912e+04 </wgt>
<wgt id='1504'> +8.0098408e+04 </wgt>
<wgt id='1505'> +8.0414599e+04 </wgt>
<wgt id='1506'> +8.0465932e+04 </wgt>
<wgt id='1507'> +7.9216822e+04 </wgt>
<wgt id='1508'> +7.6528834e+04 </wgt>
<wgt id='1509'> +7.9274013e+04 </wgt>
<wgt id='1510'> +8.1178192e+04 </wgt>
<wgt id='1511'> +7.9584339e+04 </wgt>
<wgt id='1512'> +7.8909795e+04 </wgt>
<wgt id='1513'> +8.0092713e+04 </wgt>
<wgt id='1514'> +7.9122507e+04 </wgt>
<wgt id='1515'> +7.9423992e+04 </wgt>
<wgt id='1516'> +7.7846858e+04 </wgt>
<wgt id='1517'> +8.0395515e+04 </wgt>
<wgt id='1518'> +7.9398632e+04 </wgt>
<wgt id='1519'> +7.9943555e+04 </wgt>
<wgt id='1520'> +8.0298086e+04 </wgt>
<wgt id='1521'> +7.7295864e+04 </wgt>
<wgt id='1522'> +8.0753963e+04 </wgt>
<wgt id='1523'> +8.0209343e+04 </wgt>
<wgt id='1524'> +7.9213851e+04 </wgt>
<wgt id='1525'> +8.0315310e+04 </wgt>
<wgt id='1526'> +8.0784398e+04 </wgt>
<wgt id='1527'> +7.9874866e+04 </wgt>
<wgt id='1528'> +8.1331055e+04 </wgt>
<wgt id='1529'> +8.0663660e+04 </wgt>
<wgt id='1530'> +8.1046476e+04 </wgt>
<wgt id='1531'> +7.9804002e+04 </wgt>
<wgt id='1532'> +7.7150743e+04 </wgt>
<wgt id='1533'> +8.0535064e+04 </wgt>
<wgt id='1534'> +8.0655668e+04 </wgt>
<wgt id='1535'> +7.8616567e+04 </wgt>
<wgt id='1536'> +8.0958368e+04 </wgt>
<wgt id='1537'> +7.9559075e+04 </wgt>
<wgt id='1538'> +8.1645042e+04 </wgt>
<wgt id='1539'> +8.0275015e+04 </wgt>
<wgt id='1540'> +8.1882550e+04 </wgt>
<wgt id='1541'> +8.1860539e+04 </wgt>
<wgt id='1542'> +8.0757974e+04 </wgt>
<wgt id='1543'> +8.1229965e+04 </wgt>
<wgt id='1544'> +8.1604067e+04 </wgt>
<wgt id='1545'> +8.0311702e+04 </wgt>
<wgt id='1546'> +8.1263479e+04 </wgt>
<wgt id='1547'> +8.1100902e+04 </wgt>
<wgt id='1548'> +7.9304565e+04 </wgt>
<wgt id='1549'> +8.1684939e+04 </wgt>
<wgt id='1550'> +8.1198740e+04 </wgt>
<wgt id='1551'> +8.2185195e+04 </wgt>
<wgt id='1552'> +7.9861924e+04 </wgt>
<wgt id='1553'> +8.2393235e+04 </wgt>
<wgt id='1554'> +7.8709347e+04 </wgt>
<wgt id='1555'> +7.9687752e+04 </wgt>
<wgt id='1556'> +7.9875759e+04 </wgt>
<wgt id='1557'> +7.9222169e+04 </wgt>
<wgt id='1558'> +8.0612299e+04 </wgt>
<wgt id='1559'> +8.0675956e+04 </wgt>
<wgt id='1560'> +7.9331993e+04 </wgt>
<wgt id='1561'> +8.0986028e+04 </wgt>
<wgt id='1562'> +8.0081121e+04 </wgt>
<wgt id='1563'> +7.9279244e+04 </wgt>
<wgt id='1564'> +7.9155615e+04 </wgt>
<wgt id='1565'> +7.8675749e+04 </wgt>
<wgt id='1566'> +8.0396065e+04 </wgt>
<wgt id='1567'> +8.0912033e+04 </wgt>
<wgt id='1568'> +7.9987425e+04 </wgt>
<wgt id='1569'> +8.1178620e+04 </wgt>
<wgt id='1570'> +8.1713912e+04 </wgt>
<wgt id='1571'> +8.0965874e+04 </wgt>
<wgt id='1572'> +7.9447727e+04 </wgt>
<wgt id='1573'> +8.1406125e+04 </wgt>
<wgt id='1574'> +8.0104936e+04 </wgt>
<wgt id='1575'> +7.6721348e+04 </wgt>
<wgt id='1576'> +8.1210241e+04 </wgt>
<wgt id='1577'> +7.7227020e+04 </wgt>
<wgt id='1578'> +7.8848257e+04 </wgt>
<wgt id='1579'> +7.9577859e+04 </wgt>
<wgt id='1580'> +8.2029502e+04 </wgt>
<wgt id='1581'> +8.0832048e+04 </wgt>
<wgt id='1582'> +7.9129834e+04 </wgt>
<wgt id='1583'> +7.9212849e+04 </wgt>
<wgt id='1584'> +7.7894094e+04 </wgt>
<wgt id='1585'> +7.6517245e+04 </wgt>
<wgt id='1586'> +7.2013475e+04 </wgt>
<wgt id='1587'> +7.2863862e+04 </wgt>
<wgt id='1588'> +7.3683653e+04 </wgt>
<wgt id='1589'> +7.3907963e+04 </wgt>
<wgt id='1590'> +7.4154617e+04 </wgt>
<wgt id='1591'> +7.4570386e+04 </wgt>
<wgt id='1592'> +7.5009423e+04 </wgt>
<wgt id='1593'> +7.7156514e+04 </wgt>
<wgt id='1594'> +7.7110793e+04 </wgt>
<wgt id='1595'> +7.7558311e+04 </wgt>
<wgt id='1596'> +7.7701985e+04 </wgt>
<wgt id='1597'> +7.6268772e+04 </wgt>
<wgt id='1598'> +7.6206400e+04 </wgt>
<wgt id='1599'> +7.7944720e+04 </wgt>
<wgt id='1600'> +7.6321145e+04 </wgt>
<wgt id='1601'> +7.7916121e+04 </wgt>
<wgt id='1602'> +7.7114780e+04 </wgt>
<wgt id='1603'> +7.7410586e+04 </wgt>
<wgt id='1604'> +7.7473897e+04 </wgt>
<wgt id='1605'> +7.7085970e+04 </wgt>
<wgt id='1606'> +7.6386128e+04 </wgt>
<wgt id='1607'> +7.7458873e+04 </wgt>
<wgt id='1608'> +7.6157431e+04 </wgt>
<wgt id='1609'> +7.7694289e+04 </wgt>
<wgt id='1610'> +7.6812240e+04 </wgt>
<wgt id='1611'> +7.7361858e+04 </wgt>
<wgt id='1612'> +7.7855769e+04 </wgt>
<wgt id='1613'> +7.5852955e+04 </wgt>
<wgt id='1614'> +7.6886534e+04 </wgt>
<wgt id='1615'> +7.7646360e+04 </wgt>
<wgt id='1616'> +7.6762657e+04 </wgt>
<wgt id='1617'> +7.7043752e+04 </wgt>
<wgt id='1618'> +7.7242209e+04 </wgt>
<wgt id='1619'> +7.6942210e+04 </wgt>
<wgt id='1620'> +7.8039363e+04 </wgt>
<wgt id='1621'> +7.6557717e+04 </wgt>
<wgt id='1622'> +7.8431101e+04 </wgt>
<wgt id='1623'> +7.6101200e+04 </wgt>
<wgt id='1624'> +7.7493799e+04 </wgt>
<wgt id='1625'> +7.5693797e+04 </wgt>
<wgt id='1626'> +7.6517185e+04 </wgt>
<wgt id='1627'> +7.7705849e+04 </wgt>
<wgt id='1628'> +7.6949574e+04 </wgt>
<wgt id='1629'> +7.7865113e+04 </wgt>
<wgt id='1630'> +7.6939971e+04 </wgt>
<wgt id='1631'> +7.7095477e+04 </wgt>
<wgt id='1632'> +7.6439814e+04 </wgt>
<wgt id='1633'> +7.8027787e+04 </wgt>
<wgt id='1634'> +7.8003740e+04 </wgt>
<wgt id='1635'> +7.6584608e+04 </wgt>
<wgt id='1636'> +7.7681004e+04 </wgt>
<wgt id='1637'> +7.7746306e+04 </wgt>
<wgt id='1638'> +7.7245368e+04 </wgt>
<wgt id='1639'> +7.7116265e+04 </wgt>
<wgt id='1640'> +7.8036520e+04 </wgt>
<wgt id='1641'> +7.6527600e+04 </wgt>
<wgt id='1642'> +7.7131800e+04 </wgt>
<wgt id='1643'> +7.7404895e+04 </wgt>
<wgt id='1644'> +7.7721586e+04 </wgt>
<wgt id='1645'> +7.6561339e+04 </wgt>
<wgt id='1646'> +7.6872488e+04 </wgt>
<wgt id='1647'> +7.8357256e+04 </wgt>
<wgt id='1648'> +7.7649290e+04 </wgt>
<wgt id='1649'> +7.7809909e+04 </wgt>
<wgt id='1650'> +7.9698801e+04 </wgt>
<wgt id='1651'> +7.5127123e+04 </wgt>
<wgt id='1652'> +7.6892416e+04 </wgt>
<wgt id='1653'> +7.7024958e+04 </wgt>
<wgt id='1654'> +7.7289500e+04 </wgt>
<wgt id='1655'> +7.7429863e+04 </wgt>
<wgt id='1656'> +7.8294849e+04 </wgt>
<wgt id='1657'> +7.8551027e+04 </wgt>
<wgt id='1658'> +7.8144274e+04 </wgt>
<wgt id='1659'> +7.8378207e+04 </wgt>
<wgt id='1660'> +7.8114174e+04 </wgt>
<wgt id='1661'> +7.8698140e+04 </wgt>
<wgt id='1662'> +7.7800962e+04 </wgt>
<wgt id='1663'> +7.8413828e+04 </wgt>
<wgt id='1664'> +7.7799343e+04 </wgt>
<wgt id='1665'> +7.8194909e+04 </wgt>
<wgt id='1666'> +7.8155282e+04 </wgt>
<wgt id='1667'> +7.7916409e+04 </wgt>
<wgt id='1668'> +7.8544028e+04 </wgt>
<wgt id='1669'> +7.8670976e+04 </wgt>
<wgt id='1670'> +7.7652406e+04 </wgt>
<wgt id='1671'> +7.8021820e+04 </wgt>
<wgt id='1672'> +7.8764902e+04 </wgt>
<wgt id='1673'> +7.9111792e+04 </wgt>
<wgt id='1674'> +7.7841783e+04 </wgt>
<wgt id='1675'> +7.9311878e+04 </wgt>
<wgt id='1676'> +7.7643272e+04 </wgt>
<wgt id='1677'> +7.8096635e+04 </wgt>
<wgt id='1678'> +7.8559144e+04 </wgt>
<wgt id='1679'> +7.8130842e+04 </wgt>
<wgt id='1680'> +7.9433431e+04 </wgt>
<wgt id='1681'> +7.8104707e+04 </wgt>
<wgt id='1682'> +7.8142895e+04 </wgt>
<wgt id='1683'> +7.8440721e+04 </wgt>
<wgt id='1684'> +7.8352047e+04 </wgt>
<wgt id='1685'> +7.9763906e+04 </wgt>
<wgt id='1686'> +7.6967726e+04 </wgt>
<wgt id='1687'> +7.8529942e+04 </wgt>
<wgt id='1688'> +7.8021287e+04 </wgt>
<wgt id='1689'> +7.7427488e+04 </wgt>
<wgt id='1690'> +7.9610673e+04 </wgt>
<wgt id='1691'> +7.8155990e+04 </wgt>
<wgt id='1692'> +7.8718659e+04 </wgt>
<wgt id='1693'> +7.8618453e+04 </wgt>
<wgt id='1694'> +7.8762336e+04 </wgt>
<wgt id='1695'> +7.7773121e+04 </wgt>
<wgt id='1696'> +7.9884080e+04 </wgt>
<wgt id='1697'> +7.9258956e+04 </wgt>
<wgt id='1698'> +7.7533874e+04 </wgt>
<wgt id='1699'> +7.8479469e+04 </wgt>
<wgt id='1700'> +7.7930696e+04 </wgt>
<wgt id='1701'> +7.7951544e+04 </wgt>
<wgt id='1702'> +7.8946787e+04 </wgt>
<wgt id='1703'> +7.8181010e+04 </wgt>
<wgt id='1704'> +7.8890393e+04 </wgt>
<wgt id='1705'> +7.7805900e+04 </wgt>
<wgt id='1706'> +7.9123151e+04 </wgt>
<wgt id='1707'> +7.6931817e+04 </wgt>
<wgt id='1708'> +7.9220381e+04 </wgt>
<wgt id='1709'> +7.7848236e+04 </wgt>
<wgt id='1710'> +7.9219926e+04 </wgt>
<wgt id='1711'> +7.8575715e+04 </wgt>
<wgt id='1712'> +7.8245646e+04 </wgt>
<wgt id='1713'> +8.1315980e+04 </wgt>
<wgt id='1714'> +7.5911853e+04 </wgt>
<wgt id='1715'> +7.6385689e+04 </wgt>
<wgt id='1716'> +7.8148269e+04 </wgt>
<wgt id='1717'> +7.4131808e+04 </wgt>
<wgt id='1718'> +7.4307426e+04 </wgt>
<wgt id='1719'> +7.3906618e+04 </wgt>
<wgt id='1720'> +7.4216438e+04 </wgt>
<wgt id='1721'> +7.4054500e+04 </wgt>
<wgt id='1722'> +7.4116898e+04 </wgt>
<wgt id='1723'> +7.4156246e+04 </wgt>
<wgt id='1724'> +7.4408770e+04 </wgt>
<wgt id='1725'> +7.3906564e+04 </wgt>
<wgt id='1726'> +7.4008027e+04 </wgt>
<wgt id='1727'> +7.4259583e+04 </wgt>
<wgt id='1728'> +7.4028203e+04 </wgt>
<wgt id='1729'> +7.4233618e+04 </wgt>
<wgt id='1730'> +7.3718347e+04 </wgt>
<wgt id='1731'> +7.4421812e+04 </wgt>
<wgt id='1732'> +7.4931341e+04 </wgt>
<wgt id='1733'> +7.4931341e+04 </wgt>
<wgt id='1734'> +7.3269592e+04 </wgt>
<wgt id='1735'> +7.4717110e+04 </wgt>
<wgt id='1736'> +7.3893155e+04 </wgt>
<wgt id='1737'> +7.4454713e+04 </wgt>
<wgt id='1738'> +7.4207097e+04 </wgt>
<wgt id='1739'> +7.3941938e+04 </wgt>
<wgt id='1740'> +7.4063752e+04 </wgt>
<wgt id='1741'> +7.4292027e+04 </wgt>
<wgt id='1742'> +7.4186448e+04 </wgt>
<wgt id='1743'> +7.4058645e+04 </wgt>
<wgt id='1744'> +7.4030261e+04 </wgt>
<wgt id='1745'> +7.4406175e+04 </wgt>
<wgt id='1746'> +7.3603648e+04 </wgt>
<wgt id='1747'> +7.4399540e+04 </wgt>
<wgt id='1748'> +7.4283786e+04 </wgt>
<wgt id='1749'> +7.3535341e+04 </wgt>
<wgt id='1750'> +7.4302115e+04 </wgt>
<wgt id='1751'> +7.3943859e+04 </wgt>
<wgt id='1752'> +7.4172994e+04 </wgt>
<wgt id='1753'> +7.4074541e+04 </wgt>
<wgt id='1754'> +7.3883743e+04 </wgt>
<wgt id='1755'> +7.4255813e+04 </wgt>
<wgt id='1756'> +7.3714120e+04 </wgt>
<wgt id='1757'> +7.5168335e+04 </wgt>
<wgt id='1758'> +7.4360446e+04 </wgt>
<wgt id='1759'> +7.3550289e+04 </wgt>
<wgt id='1760'> +7.4403610e+04 </wgt>
<wgt id='1761'> +7.3941002e+04 </wgt>
<wgt id='1762'> +7.4166078e+04 </wgt>
<wgt id='1763'> +7.4539344e+04 </wgt>
<wgt id='1764'> +7.4025412e+04 </wgt>
<wgt id='1765'> +7.4597640e+04 </wgt>
<wgt id='1766'> +7.4105609e+04 </wgt>
<wgt id='1767'> +7.4270736e+04 </wgt>
<wgt id='1768'> +7.4293526e+04 </wgt>
<wgt id='1769'> +7.4021745e+04 </wgt>
<wgt id='1770'> +7.3798616e+04 </wgt>
<wgt id='1771'> +7.4658509e+04 </wgt>
<wgt id='1772'> +7.4372641e+04 </wgt>
<wgt id='1773'> +7.3799499e+04 </wgt>
<wgt id='1774'> +7.4042374e+04 </wgt>
<wgt id='1775'> +7.4181191e+04 </wgt>
<wgt id='1776'> +7.4226246e+04 </wgt>
<wgt id='1777'> +7.4109048e+04 </wgt>
<wgt id='1778'> +7.4331008e+04 </wgt>
<wgt id='1779'> +7.4367390e+04 </wgt>
<wgt id='1780'> +7.4166096e+04 </wgt>
<wgt id='1781'> +7.4511582e+04 </wgt>
<wgt id='1782'> +7.4131808e+04 </wgt>
<wgt id='1783'> +7.4145233e+04 </wgt>
<wgt id='1784'> +7.4978202e+04 </wgt>
<wgt id='1785'> +7.4889695e+04 </wgt>
<wgt id='1786'> +7.3958479e+04 </wgt>
<wgt id='1787'> +7.4957540e+04 </wgt>
<wgt id='1788'> +7.5229885e+04 </wgt>
<wgt id='1789'> +7.4969237e+04 </wgt>
<wgt id='1790'> +7.3995100e+04 </wgt>
<wgt id='1791'> +7.4817311e+04 </wgt>
<wgt id='1792'> +7.4893750e+04 </wgt>
<wgt id='1793'> +7.5026837e+04 </wgt>
<wgt id='1794'> +7.5395871e+04 </wgt>
<wgt id='1795'> +7.3874704e+04 </wgt>
<wgt id='1796'> +7.5004948e+04 </wgt>
<wgt id='1797'> +7.5404687e+04 </wgt>
<wgt id='1798'> +7.4836372e+04 </wgt>
<wgt id='1799'> +7.5874021e+04 </wgt>
<wgt id='1800'> +7.5101691e+04 </wgt>
<wgt id='1801'> +7.5193641e+04 </wgt>
<wgt id='1802'> +7.4906066e+04 </wgt>
<wgt id='1803'> +7.5192336e+04 </wgt>
<wgt id='1804'> +7.3730466e+04 </wgt>
<wgt id='1805'> +7.4982726e+04 </wgt>
<wgt id='1806'> +7.4864790e+04 </wgt>
<wgt id='1807'> +7.4990157e+04 </wgt>
<wgt id='1808'> +7.4991536e+04 </wgt>
<wgt id='1809'> +7.4644748e+04 </wgt>
<wgt id='1810'> +7.4939684e+04 </wgt>
<wgt id='1811'> +7.4851942e+04 </wgt>
<wgt id='1812'> +7.5003401e+04 </wgt>
<wgt id='1813'> +7.4867991e+04 </wgt>
<wgt id='1814'> +7.4937104e+04 </wgt>
<wgt id='1815'> +7.4939002e+04 </wgt>
<wgt id='1816'> +7.4957840e+04 </wgt>
<wgt id='1817'> +7.4894777e+04 </wgt>
<wgt id='1818'> +7.4990956e+04 </wgt>
<wgt id='1819'> +7.4801367e+04 </wgt>
<wgt id='1820'> +7.4903891e+04 </wgt>
<wgt id='1821'> +7.4939901e+04 </wgt>
<wgt id='1822'> +7.4809393e+04 </wgt>
<wgt id='1823'> +7.4835520e+04 </wgt>
<wgt id='1824'> +7.5034479e+04 </wgt>
<wgt id='1825'> +7.4447176e+04 </wgt>
<wgt id='1826'> +7.5704106e+04 </wgt>
<wgt id='1827'> +8.7846550e+04 </wgt>
<wgt id='1828'> +8.7976142e+04 </wgt>
<wgt id='1829'> +8.7750795e+04 </wgt>
<wgt id='1830'> +8.8152372e+04 </wgt>
<wgt id='1831'> +8.7572860e+04 </wgt>
<wgt id='1832'> +8.7591452e+04 </wgt>
<wgt id='1833'> +8.8134494e+04 </wgt>
<wgt id='1834'> +8.7357810e+04 </wgt>
<wgt id='1835'> +8.8345034e+04 </wgt>
<wgt id='1836'> +8.8298038e+04 </wgt>
<wgt id='1837'> +8.7393495e+04 </wgt>
<wgt id='1838'> +8.8389260e+04 </wgt>
<wgt id='1839'> +8.7331326e+04 </wgt>
<wgt id='1840'> +8.8072054e+04 </wgt>
<wgt id='1841'> +8.7672323e+04 </wgt>
<wgt id='1842'> +8.8185325e+04 </wgt>
<wgt id='1843'> +8.8240327e+04 </wgt>
<wgt id='1844'> +8.7956788e+04 </wgt>
<wgt id='1845'> +8.7737978e+04 </wgt>
<wgt id='1846'> +8.7580736e+04 </wgt>
<wgt id='1847'> +8.8119748e+04 </wgt>
<wgt id='1848'> +8.7240611e+04 </wgt>
<wgt id='1849'> +8.8391622e+04 </wgt>
<wgt id='1850'> +8.7497387e+04 </wgt>
<wgt id='1851'> +8.7903618e+04 </wgt>
<wgt id='1852'> +8.8006794e+04 </wgt>
<wgt id='1853'> +8.7279022e+04 </wgt>
<wgt id='1854'> +8.7674708e+04 </wgt>
<wgt id='1855'> +8.8039180e+04 </wgt>
<wgt id='1856'> +7.5686114e+04 </wgt>
<wgt id='1857'> +7.5672745e+04 </wgt>
<wgt id='1858'> +7.5694802e+04 </wgt>
<wgt id='1859'> +7.5634818e+04 </wgt>
<wgt id='1860'> +7.5686036e+04 </wgt>
<wgt id='1861'> +7.5650736e+04 </wgt>
<wgt id='1862'> +7.5498690e+04 </wgt>
<wgt id='1863'> +7.5551382e+04 </wgt>
<wgt id='1864'> +7.5434725e+04 </wgt>
<wgt id='1865'> +7.5469032e+04 </wgt>
<wgt id='1866'> +7.5988086e+04 </wgt>
<wgt id='1867'> +7.5725852e+04 </wgt>
<wgt id='1868'> +7.5649575e+04 </wgt>
<wgt id='1869'> +7.5752783e+04 </wgt>
<wgt id='1870'> +7.5608910e+04 </wgt>
<wgt id='1871'> +7.5667647e+04 </wgt>
<wgt id='1872'> +7.5512991e+04 </wgt>
<wgt id='1873'> +7.5648961e+04 </wgt>
<wgt id='1874'> +7.5788210e+04 </wgt>
<wgt id='1875'> +7.5762706e+04 </wgt>
<wgt id='1876'> +7.5404143e+04 </wgt>
<wgt id='1877'> +7.5523739e+04 </wgt>
<wgt id='1878'> +7.5636258e+04 </wgt>
<wgt id='1879'> +7.5817191e+04 </wgt>
<wgt id='1880'> +7.5834029e+04 </wgt>
<wgt id='1881'> +7.5893379e+04 </wgt>
<wgt id='1882'> +7.5757444e+04 </wgt>
<wgt id='1883'> +7.5643043e+04 </wgt>
<wgt id='1884'> +7.5704550e+04 </wgt>
<wgt id='1885'> +7.4999457e+04 </wgt>
<wgt id='1886'> +6.9333936e+04 </wgt>
<wgt id='1887'> +7.7863889e+04 </wgt>
<wgt id='1888'> +7.5457427e+04 </wgt>
<wgt id='1889'> +9.0975095e+04 </wgt>
</rwgt>
</event>
<event npLO=" -1 " npNLO=" 0 ">
 6      0 +7.4519530e+04 3.00000000e+01 7.55820760e-03 1.20063580e-01
        2 -1    0    0  501    0 +0.0000000000e+00 +0.0000000000e+00 +5.2113458086e+02 5.2113458086e+02 0.0000000000e+00 0.0000e+00 -1.0000e+00
       21 -1    0    0  502  501 +0.0000000000e+00 +0.0000000000e+00 -4.5014549573e+00 4.5014549573e+00 0.0000000000e+00 0.0000e+00 1.0000e+00
       24  2    1    2    0    0 +1.3311135174e+01 -5.5753647177e+00 +4.0726944429e+02 4.1532426914e+02 8.0109782634e+01 0.0000e+00 0.0000e+00
      -15  1    3    3    0    0 +2.1732115817e+01 -2.4367859201e+01 +6.8239080501e+01 7.5669064065e+01 1.7770000000e+00 0.0000e+00 1.0000e+00
       16  1    3    3    0    0 -8.4209806424e+00 +1.8792494484e+01 +3.3903036379e+02 3.3965520508e+02 0.0000000000e+00 0.0000e+00 -1.0000e+00
        1  1    1    2  502    0 -1.3311135174e+01 +5.5753647177e+00 +1.0936368161e+02 1.1031176667e+02 0.0000000000e+00 0.0000e+00 -1.0000e+00
#aMCatNLO 2  0  0  2  1 0.25002156E+02 0.00000000E+00 -9  5  0 0.00000000E+00 0.00000000E+00 0.00000000E+00 0.00000000E+00 0.00000000E+00
<rwgt>
<wgt id='1001'> +7.4519530e+04 </wgt>
<wgt id='1002'> +6.7353395e+04 </wgt>
<wgt id='1003'> +8.3444609e+04 </wgt>
<wgt id='1004'> +8.3044589e+04 </wgt>
<wgt id='1005'> +7.5058645e+04 </wgt>
<wgt id='1006'> +9.2990700e+04 </wgt>
<wgt id='1007'> +6.4747637e+04 </wgt>
<wgt id='1008'> +5.8521211e+04 </wgt>
<wgt id='1009'> +7.2502353e+04 </wgt>
<wgt id='1010'> +7.4519530e+04 </wgt>
<wgt id='1011'> +7.4639040e+04 </wgt>
<wgt id='1012'> +7.4487556e+04 </wgt>
<wgt id='1013'> +7.4409068e+04 </wgt>
<wgt id='1014'> +7.4367665e+04 </wgt>
<wgt id='1015'> +7.4633039e+04 </wgt>
<wgt id='1016'> +7.4170653e+04 </wgt>
<wgt id='1017'> +7.4343740e+04 </wgt>
<wgt id='1018'> +7.4155296e+04 </wgt>
<wgt id='1019'> +7.4663368e+04 </wgt>
<wgt id='1020'> +7.4560900e+04 </wgt>
<wgt id='1021'> +7.4661908e+04 </wgt>
<wgt id='1022'> +7.4388665e+04 </wgt>
<wgt id='1023'> +7.4337413e+04 </wgt>
<wgt id='1024'> +7.4445582e+04 </wgt>
<wgt id='1025'> +7.4462082e+04 </wgt>
<wgt id='1026'> +7.4299568e+04 </wgt>
<wgt id='1027'> +7.4375369e+04 </wgt>
<wgt id='1028'> +7.4688695e+04 </wgt>
<wgt id='1029'> +7.4551460e+04 </wgt>
<wgt id='1030'> +7.4468997e+04 </wgt>
<wgt id='1031'> +7.4687604e+04 </wgt>
<wgt id='1032'> +7.4669528e+04 </wgt>
<wgt id='1033'> +7.4494737e+04 </wgt>
<wgt id='1034'> +7.4610507e+04 </wgt>
<wgt id='1035'> +7.4470265e+04 </wgt>
<wgt id='1036'> +7.4418057e+04 </wgt>
<wgt id='1037'> +7.4618612e+04 </wgt>
<wgt id='1038'> +7.4543309e+04 </wgt>
<wgt id='1039'> +7.4786434e+04 </wgt>
<wgt id='1040'> +7.4476393e+04 </wgt>
<wgt id='1041'> +7.4891648e+04 </wgt>
<wgt id='1042'> +7.4532848e+04 </wgt>
<wgt id='1043'> +7.4648196e+04 </wgt>
<wgt id='1044'> +7.4647094e+04 </wgt>
<wgt id='1045'> +7.4524304e+04 </wgt>
<wgt id='1046'> +7.4405768e+04 </wgt>
<wgt id='1047'> +7.4555087e+04 </wgt>
<wgt id='1048'> +7.4552728e+04 </wgt>
<wgt id='1049'> +7.4537643e+04 </wgt>
<wgt id='1050'> +7.4714052e+04 </wgt>
<wgt id='1051'> +7.4792009e+04 </wgt>
<wgt id='1052'> +7.4601117e+04 </wgt>
<wgt id='1053'> +7.4382978e+04 </wgt>
<wgt id='1054'> +7.4486527e+04 </wgt>
<wgt id='1055'> +7.4489646e+04 </wgt>
<wgt id='1056'> +7.4534878e+04 </wgt>
<wgt id='1057'> +7.4378273e+04 </wgt>
<wgt id='1058'> +7.4356632e+04 </wgt>
<wgt id='1059'> +7.4619437e+04 </wgt>
<wgt id='1060'> +7.4423223e+04 </wgt>
<wgt id='1061'> +7.4534463e+04 </wgt>
<wgt id='1062'> +7.4636741e+04 </wgt>
<wgt id='1063'> +7.4565187e+04 </wgt>
<wgt id='1064'> +7.4605224e+04 </wgt>
<wgt id='1065'> +7.4561877e+04 </wgt>
<wgt id='1066'> +7.4613589e+04 </wgt>
<wgt id='1067'> +7.4611477e+04 </wgt>
<wgt id='1068'> +7.4564364e+04 </wgt>
<wgt id='1069'> +7.4524044e+04 </wgt>
<wgt id='1070'> +7.4480044e+04 </wgt>
<wgt id='1071'> +7.4570206e+04 </wgt>
<wgt id='1072'> +7.4489582e+04 </wgt>
<wgt id='1073'> +7.4471433e+04 </wgt>
<wgt id='1074'> +7.4467138e+04 </wgt>
<wgt id='1075'> +7.4565900e+04 </wgt>
<wgt id='1076'> +7.4584355e+04 </wgt>
<wgt id='1077'> +7.4513743e+04 </wgt>
<wgt id='1078'> +7.4486019e+04 </wgt>
<wgt id='1079'> +7.4567246e+04 </wgt>
<wgt id='1080'> +7.4497870e+04 </wgt>
<wgt id='1081'> +7.4476963e+04 </wgt>
<wgt id='1082'> +7.4559149e+04 </wgt>
<wgt id='1083'> +7.4431428e+04 </wgt>
<wgt id='1084'> +7.4523003e+04 </wgt>
<wgt id='1085'> +7.4454453e+04 </wgt>
<wgt id='1086'> +7.4509265e+04 </wgt>
<wgt id='1087'> +7.4563883e+04 </wgt>
<wgt id='1088'> +7.4556474e+04 </wgt>
<wgt id='1089'> +7.4492501e+04 </wgt>
<wgt id='1090'> +7.4554354e+04 </wgt>
<wgt id='1091'> +7.4473642e+04 </wgt>
<wgt id='1092'> +7.4479401e+04 </wgt>
<wgt id='1093'> +7.4500888e+04 </wgt>
<wgt id='1094'> +7.4584011e+04 </wgt>
<wgt id='1095'> +7.4550945e+04 </wgt>
<wgt id='1096'> +7.4510995e+04 </wgt>
<wgt id='1097'> +7.4457437e+04 </wgt>
<wgt id='1098'> +7.4529599e+04 </wgt>
<wgt id='1099'> +7.4559987e+04 </wgt>
<wgt id='1100'> +7.4479023e+04 </wgt>
<wgt id='1101'> +7.4515425e+04 </wgt>
<wgt id='1102'> +7.4560624e+04 </wgt>
<wgt id='1103'> +7.4536764e+04 </wgt>
<wgt id='1104'> +7.4535176e+04 </wgt>
<wgt id='1105'> +7.4500169e+04 </wgt>
<wgt id='1106'> +7.4498313e+04 </wgt>
<wgt id='1107'> +7.4525915e+04 </wgt>
<wgt id='1108'> +7.4513635e+04 </wgt>
<wgt id='1109'> +7.4534586e+04 </wgt>
<wgt id='1110'> +7.4519530e+04 </wgt>
<wgt id='1111'> +7.3536109e+04 </wgt>
<wgt id='1112'> +7.5278002e+04 </wgt>
<wgt id='1113'> +7.4519530e+04 </wgt>
<wgt id='1114'> +7.4455066e+04 </wgt>
<wgt id='1115'> +7.6054790e+04 </wgt>
<wgt id='1116'> +7.2474221e+04 </wgt>
<wgt id='1117'> +7.2962233e+04 </wgt>
<wgt id='1118'> +7.3528283e+04 </wgt>
<wgt id='1119'> +7.2650875e+04 </wgt>
<wgt id='1120'> +7.6626311e+04 </wgt>
<wgt id='1121'> +7.5841415e+04 </wgt>
<wgt id='1122'> +7.4523527e+04 </wgt>
<wgt id='1123'> +7.1967313e+04 </wgt>
<wgt id='1124'> +7.3862710e+04 </wgt>
<wgt id='1125'> +7.3199054e+04 </wgt>
<wgt id='1126'> +7.5086037e+04 </wgt>
<wgt id='1127'> +7.5558810e+04 </wgt>
<wgt id='1128'> +7.5377589e+04 </wgt>
<wgt id='1129'> +7.4839387e+04 </wgt>
<wgt id='1130'> +7.3739137e+04 </wgt>
<wgt id='1131'> +7.4395264e+04 </wgt>
<wgt id='1132'> +7.6056018e+04 </wgt>
<wgt id='1133'> +7.4507281e+04 </wgt>
<wgt id='1134'> +7.4709673e+04 </wgt>
<wgt id='1135'> +7.5834129e+04 </wgt>
<wgt id='1136'> +7.6358524e+04 </wgt>
<wgt id='1137'> +7.4423957e+04 </wgt>
<wgt id='1138'> +7.5329789e+04 </wgt>
<wgt id='1139'> +7.6165421e+04 </wgt>
<wgt id='1140'> +7.3489257e+04 </wgt>
<wgt id='1141'> +7.4683831e+04 </wgt>
<wgt id='1142'> +7.4418019e+04 </wgt>
<wgt id='1143'> +7.4747451e+04 </wgt>
<wgt id='1144'> +7.4857868e+04 </wgt>
<wgt id='1145'> +7.2879173e+04 </wgt>
<wgt id='1146'> +7.4205640e+04 </wgt>
<wgt id='1147'> +7.3883811e+04 </wgt>
<wgt id='1148'> +7.2482291e+04 </wgt>
<wgt id='1149'> +7.4090298e+04 </wgt>
<wgt id='1150'> +7.4541651e+04 </wgt>
<wgt id='1151'> +7.3349931e+04 </wgt>
<wgt id='1152'> +7.4854071e+04 </wgt>
<wgt id='1153'> +7.5484634e+04 </wgt>
<wgt id='1154'> +7.4206130e+04 </wgt>
<wgt id='1155'> +7.4815944e+04 </wgt>
<wgt id='1156'> +7.3572330e+04 </wgt>
<wgt id='1157'> +7.4047892e+04 </wgt>
<wgt id='1158'> +7.4714923e+04 </wgt>
<wgt id='1159'> +7.4752346e+04 </wgt>
<wgt id='1160'> +7.4857680e+04 </wgt>
<wgt id='1161'> +7.7386760e+04 </wgt>
<wgt id='1162'> +7.5760560e+04 </wgt>
<wgt id='1163'> +7.4239583e+04 </wgt>
<wgt id='1164'> +7.3763660e+04 </wgt>
<wgt id='1165'> +7.5390695e+04 </wgt>
<wgt id='1166'> +7.3951178e+04 </wgt>
<wgt id='1167'> +7.4992915e+04 </wgt>
<wgt id='1168'> +7.6059299e+04 </wgt>
<wgt id='1169'> +7.4531230e+04 </wgt>
<wgt id='1170'> +7.6276402e+04 </wgt>
<wgt id='1171'> +7.5482363e+04 </wgt>
<wgt id='1172'> +7.3534856e+04 </wgt>
<wgt id='1173'> +7.5792531e+04 </wgt>
<wgt id='1174'> +7.4866575e+04 </wgt>
<wgt id='1175'> +7.4548074e+04 </wgt>
<wgt id='1176'> +7.3717295e+04 </wgt>
<wgt id='1177'> +7.4812857e+04 </wgt>
<wgt id='1178'> +7.4697952e+04 </wgt>
<wgt id='1179'> +7.5328473e+04 </wgt>
<wgt id='1180'> +7.5564042e+04 </wgt>
<wgt id='1181'> +7.5149409e+04 </wgt>
<wgt id='1182'> +7.5602253e+04 </wgt>
<wgt id='1183'> +7.5451788e+04 </wgt>
<wgt id='1184'> +7.4020580e+04 </wgt>
<wgt id='1185'> +7.6661338e+04 </wgt>
<wgt id='1186'> +7.3255667e+04 </wgt>
<wgt id='1187'> +7.3686152e+04 </wgt>
<wgt id='1188'> +7.3573765e+04 </wgt>
<wgt id='1189'> +7.4277076e+04 </wgt>
<wgt id='1190'> +7.4750545e+04 </wgt>
<wgt id='1191'> +7.4922275e+04 </wgt>
<wgt id='1192'> +7.3761298e+04 </wgt>
<wgt id='1193'> +7.3402059e+04 </wgt>
<wgt id='1194'> +7.4629575e+04 </wgt>
<wgt id='1195'> +7.4839387e+04 </wgt>
<wgt id='1196'> +7.1978542e+04 </wgt>
<wgt id='1197'> +7.4189498e+04 </wgt>
<wgt id='1198'> +7.4726165e+04 </wgt>
<wgt id='1199'> +7.4957690e+04 </wgt>
<wgt id='1200'> +7.3405844e+04 </wgt>
<wgt id='1201'> +7.2562412e+04 </wgt>
<wgt id='1202'> +7.1268058e+04 </wgt>
<wgt id='1203'> +7.3771880e+04 </wgt>
<wgt id='1204'> +7.4806911e+04 </wgt>
<wgt id='1205'> +7.3955953e+04 </wgt>
<wgt id='1206'> +7.4124480e+04 </wgt>
<wgt id='1207'> +7.4868158e+04 </wgt>
<wgt id='1208'> +7.4706555e+04 </wgt>
<wgt id='1209'> +7.5247819e+04 </wgt>
<wgt id='1210'> +7.3426099e+04 </wgt>
<wgt id='1211'> +7.4280564e+04 </wgt>
<wgt id='1212'> +7.6081364e+04 </wgt>
<wgt id='1213'> +7.5475125e+04 </wgt>
<wgt id='1214'> +7.4406115e+04 </wgt>
<wgt id='1215'> +7.0093182e+04 </wgt>
<wgt id='1216'> +7.0853797e+04 </wgt>
<wgt id='1217'> +7.1769403e+04 </wgt>
<wgt id='1218'> +7.2695654e+04 </wgt>
<wgt id='1219'> +7.4165994e+04 </wgt>
<wgt id='1220'> +7.4756129e+04 </wgt>
<wgt id='1221'> +7.6170806e+04 </wgt>
<wgt id='1222'> +7.6833084e+04 </wgt>
<wgt id='1223'> +7.5058181e+04 </wgt>
<wgt id='1224'> +7.5000570e+04 </wgt>
<wgt id='1225'> +7.5207591e+04 </wgt>
<wgt id='1226'> +7.4860460e+04 </wgt>
<wgt id='1227'> +7.4932172e+04 </wgt>
<wgt id='1228'> +7.4785275e+04 </wgt>
<wgt id='1229'> +7.4995507e+04 </wgt>
<wgt id='1230'> +7.4800573e+04 </wgt>
<wgt id='1231'> +7.5062348e+04 </wgt>
<wgt id='1232'> +7.4855657e+04 </wgt>
<wgt id='1233'> +7.5039234e+04 </wgt>
<wgt id='1234'> +7.5107590e+04 </wgt>
<wgt id='1235'> +7.5010323e+04 </wgt>
<wgt id='1236'> +7.4984798e+04 </wgt>
<wgt id='1237'> +7.5161723e+04 </wgt>
<wgt id='1238'> +7.5029599e+04 </wgt>
<wgt id='1239'> +7.5005304e+04 </wgt>
<wgt id='1240'> +7.5099343e+04 </wgt>
<wgt id='1241'> +7.5019762e+04 </wgt>
<wgt id='1242'> +7.4979611e+04 </wgt>
<wgt id='1243'> +7.4917518e+04 </wgt>
<wgt id='1244'> +7.5222913e+04 </wgt>
<wgt id='1245'> +7.5126944e+04 </wgt>
<wgt id='1246'> +7.5278436e+04 </wgt>
<wgt id='1247'> +7.5134401e+04 </wgt>
<wgt id='1248'> +7.4843548e+04 </wgt>
<wgt id='1249'> +7.5008790e+04 </wgt>
<wgt id='1250'> +7.4988575e+04 </wgt>
<wgt id='1251'> +7.5155025e+04 </wgt>
<wgt id='1252'> +7.5392225e+04 </wgt>
<wgt id='1253'> +7.4695305e+04 </wgt>
<wgt id='1254'> +7.4690534e+04 </wgt>
<wgt id='1255'> +7.5173479e+04 </wgt>
<wgt id='1256'> +7.5101708e+04 </wgt>
<wgt id='1257'> +7.5025220e+04 </wgt>
<wgt id='1258'> +7.5132891e+04 </wgt>
<wgt id='1259'> +7.5141177e+04 </wgt>
<wgt id='1260'> +7.4930748e+04 </wgt>
<wgt id='1261'> +7.5106212e+04 </wgt>
<wgt id='1262'> +7.5064121e+04 </wgt>
<wgt id='1263'> +7.5017181e+04 </wgt>
<wgt id='1264'> +7.5092046e+04 </wgt>
<wgt id='1265'> +7.5141211e+04 </wgt>
<wgt id='1266'> +7.5009415e+04 </wgt>
<wgt id='1267'> +7.5081405e+04 </wgt>
<wgt id='1268'> +7.5126278e+04 </wgt>
<wgt id='1269'> +7.5038264e+04 </wgt>
<wgt id='1270'> +7.5047236e+04 </wgt>
<wgt id='1271'> +7.5169037e+04 </wgt>
<wgt id='1272'> +7.5102728e+04 </wgt>
<wgt id='1273'> +7.5000787e+04 </wgt>
<wgt id='1274'> +7.5056388e+04 </wgt>
<wgt id='1275'> +7.5060041e+04 </wgt>
<wgt id='1276'> +7.4921412e+04 </wgt>
<wgt id='1277'> +7.5012430e+04 </wgt>
<wgt id='1278'> +7.5075564e+04 </wgt>
<wgt id='1279'> +7.4949623e+04 </wgt>
<wgt id='1280'> +7.5096954e+04 </wgt>
<wgt id='1281'> +7.4918164e+04 </wgt>
<wgt id='1282'> +7.5090183e+04 </wgt>
<wgt id='1283'> +7.5063638e+04 </wgt>
<wgt id='1284'> +7.5093427e+04 </wgt>
<wgt id='1285'> +7.4974269e+04 </wgt>
<wgt id='1286'> +7.5112748e+04 </wgt>
<wgt id='1287'> +7.4993596e+04 </wgt>
<wgt id='1288'> +7.5160523e+04 </wgt>
<wgt id='1289'> +7.5050738e+04 </wgt>
<wgt id='1290'> +7.4940471e+04 </wgt>
<wgt id='1291'> +7.5153086e+04 </wgt>
<wgt id='1292'> +7.4974578e+04 </wgt>
<wgt id='1293'> +7.5100224e+04 </wgt>
<wgt id='1294'> +7.5038792e+04 </wgt>
<wgt id='1295'> +7.5121950e+04 </wgt>
<wgt id='1296'> +7.5087250e+04 </wgt>
<wgt id='1297'> +7.5095187e+04 </wgt>
<wgt id='1298'> +7.4986989e+04 </wgt>
<wgt id='1299'> +7.5066600e+04 </wgt>
<wgt id='1300'> +7.5087033e+04 </wgt>
<wgt id='1301'> +7.5052269e+04 </wgt>
<wgt id='1302'> +7.5013718e+04 </wgt>
<wgt id='1303'> +7.5059591e+04 </wgt>
<wgt id='1304'> +7.5091758e+04 </wgt>
<wgt id='1305'> +7.5002552e+04 </wgt>
<wgt id='1306'> +7.5069233e+04 </wgt>
<wgt id='1307'> +7.5003716e+04 </wgt>
<wgt id='1308'> +7.5017208e+04 </wgt>
<wgt id='1309'> +7.5054609e+04 </wgt>
<wgt id='1310'> +7.5090978e+04 </wgt>
<wgt id='1311'> +7.4997534e+04 </wgt>
<wgt id='1312'> +7.4979188e+04 </wgt>
<wgt id='1313'> +7.5012308e+04 </wgt>
<wgt id='1314'> +7.5078711e+04 </wgt>
<wgt id='1315'> +7.5031556e+04 </wgt>
<wgt id='1316'> +7.5041111e+04 </wgt>
<wgt id='1317'> +7.5117634e+04 </wgt>
<wgt id='1318'> +7.5077561e+04 </wgt>
<wgt id='1319'> +7.5019538e+04 </wgt>
<wgt id='1320'> +7.5065116e+04 </wgt>
<wgt id='1321'> +7.5087235e+04 </wgt>
<wgt id='1322'> +7.5022914e+04 </wgt>
<wgt id='1323'> +7.5018577e+04 </wgt>
<wgt id='1324'> +7.4200194e+04 </wgt>
<wgt id='1325'> +7.6066745e+04 </wgt>
<wgt id='1326'> +7.2312601e+04 </wgt>
<wgt id='1327'> +7.2350323e+04 </wgt>
<wgt id='1328'> +7.4177871e+04 </wgt>
<wgt id='1329'> +7.3831918e+04 </wgt>
<wgt id='1330'> +7.4000305e+04 </wgt>
<wgt id='1331'> +7.4738627e+04 </wgt>
<wgt id='1332'> +7.3819475e+04 </wgt>
<wgt id='1333'> +7.3899036e+04 </wgt>
<wgt id='1334'> +7.3430032e+04 </wgt>
<wgt id='1335'> +7.3588064e+04 </wgt>
<wgt id='1336'> +7.4612183e+04 </wgt>
<wgt id='1337'> +7.3864010e+04 </wgt>
<wgt id='1338'> +7.4599531e+04 </wgt>
<wgt id='1339'> +7.4401058e+04 </wgt>
<wgt id='1340'> +7.4180900e+04 </wgt>
<wgt id='1341'> +7.3376321e+04 </wgt>
<wgt id='1342'> +7.4238307e+04 </wgt>
<wgt id='1343'> +7.4017085e+04 </wgt>
<wgt id='1344'> +7.2987751e+04 </wgt>
<wgt id='1345'> +7.5303227e+04 </wgt>
<wgt id='1346'> +7.3742424e+04 </wgt>
<wgt id='1347'> +7.4959893e+04 </wgt>
<wgt id='1348'> +7.2911597e+04 </wgt>
<wgt id='1349'> +7.4238571e+04 </wgt>
<wgt id='1350'> +7.4577845e+04 </wgt>
<wgt id='1351'> +7.3745029e+04 </wgt>
<wgt id='1352'> +7.4707572e+04 </wgt>
<wgt id='1353'> +7.3918669e+04 </wgt>
<wgt id='1354'> +7.4881547e+04 </wgt>
<wgt id='1355'> +7.4486166e+04 </wgt>
<wgt id='1356'> +7.4416866e+04 </wgt>
<wgt id='1357'> +7.3852196e+04 </wgt>
<wgt id='1358'> +7.3490525e+04 </wgt>
<wgt id='1359'> +7.4562417e+04 </wgt>
<wgt id='1360'> +7.3514698e+04 </wgt>
<wgt id='1361'> +7.4841345e+04 </wgt>
<wgt id='1362'> +7.5022264e+04 </wgt>
<wgt id='1363'> +7.4243668e+04 </wgt>
<wgt id='1364'> +7.3696368e+04 </wgt>
<wgt id='1365'> +7.3523653e+04 </wgt>
<wgt id='1366'> +7.3993141e+04 </wgt>
<wgt id='1367'> +7.4874638e+04 </wgt>
<wgt id='1368'> +7.5536554e+04 </wgt>
<wgt id='1369'> +7.2008015e+04 </wgt>
<wgt id='1370'> +7.4119651e+04 </wgt>
<wgt id='1371'> +7.4267510e+04 </wgt>
<wgt id='1372'> +7.4873647e+04 </wgt>
<wgt id='1373'> +7.3416691e+04 </wgt>
<wgt id='1374'> +7.4776409e+04 </wgt>
<wgt id='1375'> +7.4392159e+04 </wgt>
<wgt id='1376'> +7.4862698e+04 </wgt>
<wgt id='1377'> +7.4376775e+04 </wgt>
<wgt id='1378'> +7.4375017e+04 </wgt>
<wgt id='1379'> +7.4959124e+04 </wgt>
<wgt id='1380'> +7.2732781e+04 </wgt>
<wgt id='1381'> +7.3686501e+04 </wgt>
<wgt id='1382'> +7.3918799e+04 </wgt>
<wgt id='1383'> +7.4908429e+04 </wgt>
<wgt id='1384'> +7.3977082e+04 </wgt>
<wgt id='1385'> +7.3967660e+04 </wgt>
<wgt id='1386'> +7.4012751e+04 </wgt>
<wgt id='1387'> +7.3075173e+04 </wgt>
<wgt id='1388'> +7.4543288e+04 </wgt>
<wgt id='1389'> +7.3585037e+04 </wgt>
<wgt id='1390'> +7.3404232e+04 </wgt>
<wgt id='1391'> +7.3969910e+04 </wgt>
<wgt id='1392'> +7.4484790e+04 </wgt>
<wgt id='1393'> +7.3583575e+04 </wgt>
<wgt id='1394'> +7.3523653e+04 </wgt>
<wgt id='1395'> +7.3906095e+04 </wgt>
<wgt id='1396'> +7.4186867e+04 </wgt>
<wgt id='1397'> +7.4251152e+04 </wgt>
<wgt id='1398'> +7.4521482e+04 </wgt>
<wgt id='1399'> +7.4545898e+04 </wgt>
<wgt id='1400'> +7.4903721e+04 </wgt>
<wgt id='1401'> +7.4344717e+04 </wgt>
<wgt id='1402'> +7.4260967e+04 </wgt>
<wgt id='1403'> +7.4046708e+04 </wgt>
<wgt id='1404'> +7.5263340e+04 </wgt>
<wgt id='1405'> +7.2891459e+04 </wgt>
<wgt id='1406'> +7.4338664e+04 </wgt>
<wgt id='1407'> +7.4408932e+04 </wgt>
<wgt id='1408'> +7.4516966e+04 </wgt>
<wgt id='1409'> +7.3547960e+04 </wgt>
<wgt id='1410'> +7.4784460e+04 </wgt>
<wgt id='1411'> +7.4881653e+04 </wgt>
<wgt id='1412'> +7.5249360e+04 </wgt>
<wgt id='1413'> +7.4660954e+04 </wgt>
<wgt id='1414'> +7.4529542e+04 </wgt>
<wgt id='1415'> +7.3228325e+04 </wgt>
<wgt id='1416'> +7.4182077e+04 </wgt>
<wgt id='1417'> +7.3317954e+04 </wgt>
<wgt id='1418'> +7.4605353e+04 </wgt>
<wgt id='1419'> +7.4801797e+04 </wgt>
<wgt id='1420'> +7.4655413e+04 </wgt>
<wgt id='1421'> +7.3370492e+04 </wgt>
<wgt id='1422'> +7.4114214e+04 </wgt>
<wgt id='1423'> +7.5439950e+04 </wgt>
<wgt id='1424'> +7.4194815e+04 </wgt>
<wgt id='1425'> +7.3051462e+04 </wgt>
<wgt id='1426'> +7.4975892e+04 </wgt>
<wgt id='1427'> +7.4934076e+04 </wgt>
<wgt id='1428'> +7.4436543e+04 </wgt>
<wgt id='1429'> +7.3769081e+04 </wgt>
<wgt id='1430'> +7.4591740e+04 </wgt>
<wgt id='1431'> +7.4197293e+04 </wgt>
<wgt id='1432'> +7.4537501e+04 </wgt>
<wgt id='1433'> +7.4425155e+04 </wgt>
<wgt id='1434'> +7.4179915e+04 </wgt>
<wgt id='1435'> +7.4145828e+04 </wgt>
<wgt id='1436'> +7.4264642e+04 </wgt>
<wgt id='1437'> +7.4123266e+04 </wgt>
<wgt id='1438'> +7.4106133e+04 </wgt>
<wgt id='1439'> +7.4029294e+04 </wgt>
<wgt id='1440'> +7.4169892e+04 </wgt>
<wgt id='1441'> +7.4158962e+04 </wgt>
<wgt id='1442'> +7.4276184e+04 </wgt>
<wgt id='1443'> +7.4139714e+04 </wgt>
<wgt id='1444'> +7.4018673e+04 </wgt>
<wgt id='1445'> +7.4246575e+04 </wgt>
<wgt id='1446'> +7.4154551e+04 </wgt>
<wgt id='1447'> +7.4023392e+04 </wgt>
<wgt id='1448'> +7.4321163e+04 </wgt>
<wgt id='1449'> +7.4147674e+04 </wgt>
<wgt id='1450'> +7.3981880e+04 </wgt>
<wgt id='1451'> +7.4126407e+04 </wgt>
<wgt id='1452'> +7.4129198e+04 </wgt>
<wgt id='1453'> +7.4219550e+04 </wgt>
<wgt id='1454'> +7.4189247e+04 </wgt>
<wgt id='1455'> +7.4175844e+04 </wgt>
<wgt id='1456'> +7.4206944e+04 </wgt>
<wgt id='1457'> +7.4272506e+04 </wgt>
<wgt id='1458'> +7.4188732e+04 </wgt>
<wgt id='1459'> +7.4117082e+04 </wgt>
<wgt id='1460'> +7.4099673e+04 </wgt>
<wgt id='1461'> +7.4122279e+04 </wgt>
<wgt id='1462'> +7.4163175e+04 </wgt>
<wgt id='1463'> +7.4166409e+04 </wgt>
<wgt id='1464'> +7.4139155e+04 </wgt>
<wgt id='1465'> +7.4173664e+04 </wgt>
<wgt id='1466'> +7.4220092e+04 </wgt>
<wgt id='1467'> +7.4228509e+04 </wgt>
<wgt id='1468'> +7.4255577e+04 </wgt>
<wgt id='1469'> +7.4172924e+04 </wgt>
<wgt id='1470'> +7.4253202e+04 </wgt>
<wgt id='1471'> +7.4236355e+04 </wgt>
<wgt id='1472'> +7.4202688e+04 </wgt>
<wgt id='1473'> +7.4181152e+04 </wgt>
<wgt id='1474'> +7.4229205e+04 </wgt>
<wgt id='1475'> +7.4163861e+04 </wgt>
<wgt id='1476'> +7.4206649e+04 </wgt>
<wgt id='1477'> +7.4211280e+04 </wgt>
<wgt id='1478'> +7.4198756e+04 </wgt>
<wgt id='1479'> +7.4171323e+04 </wgt>
<wgt id='1480'> +7.4219782e+04 </wgt>
<wgt id='1481'> +7.4183022e+04 </wgt>
<wgt id='1482'> +7.3769081e+04 </wgt>
<wgt id='1483'> +7.4591740e+04 </wgt>
<wgt id='1484'> +7.4721429e+04 </wgt>
<wgt id='1485'> +7.4685366e+04 </wgt>
<wgt id='1486'> +7.4494084e+04 </wgt>
<wgt id='1487'> +7.3402625e+04 </wgt>
<wgt id='1488'> +7.4348099e+04 </wgt>
<wgt id='1489'> +7.4800818e+04 </wgt>
<wgt id='1490'> +7.3594699e+04 </wgt>
<wgt id='1491'> +7.5747564e+04 </wgt>
<wgt id='1492'> +7.3257138e+04 </wgt>
<wgt id='1493'> +7.4653986e+04 </wgt>
<wgt id='1494'> +7.3919861e+04 </wgt>
<wgt id='1495'> +7.4001199e+04 </wgt>
<wgt id='1496'> +7.4522226e+04 </wgt>
<wgt id='1497'> +7.4746498e+04 </wgt>
<wgt id='1498'> +7.5332046e+04 </wgt>
<wgt id='1499'> +7.4679684e+04 </wgt>
<wgt id='1500'> +7.3465581e+04 </wgt>
<wgt id='1501'> +7.4074785e+04 </wgt>
<wgt id='1502'> +7.5229013e+04 </wgt>
<wgt id='1503'> +7.4124361e+04 </wgt>
<wgt id='1504'> +7.4646568e+04 </wgt>
<wgt id='1505'> +7.4388452e+04 </wgt>
<wgt id='1506'> +7.4061782e+04 </wgt>
<wgt id='1507'> +7.3901130e+04 </wgt>
<wgt id='1508'> +7.3456101e+04 </wgt>
<wgt id='1509'> +7.5508619e+04 </wgt>
<wgt id='1510'> +7.6123091e+04 </wgt>
<wgt id='1511'> +7.4868422e+04 </wgt>
<wgt id='1512'> +7.4739136e+04 </wgt>
<wgt id='1513'> +7.4576638e+04 </wgt>
<wgt id='1514'> +7.4703461e+04 </wgt>
<wgt id='1515'> +7.4350910e+04 </wgt>
<wgt id='1516'> +7.3013270e+04 </wgt>
<wgt id='1517'> +7.4949430e+04 </wgt>
<wgt id='1518'> +7.4436861e+04 </wgt>
<wgt id='1519'> +7.4039837e+04 </wgt>
<wgt id='1520'> +7.4953336e+04 </wgt>
<wgt id='1521'> +7.3488908e+04 </wgt>
<wgt id='1522'> +7.5477247e+04 </wgt>
<wgt id='1523'> +7.5038711e+04 </wgt>
<wgt id='1524'> +7.4280407e+04 </wgt>
<wgt id='1525'> +7.4705762e+04 </wgt>
<wgt id='1526'> +7.4632327e+04 </wgt>
<wgt id='1527'> +7.4991881e+04 </wgt>
<wgt id='1528'> +7.5376432e+04 </wgt>
<wgt id='1529'> +7.5300656e+04 </wgt>
<wgt id='1530'> +7.4524497e+04 </wgt>
<wgt id='1531'> +7.4452046e+04 </wgt>
<wgt id='1532'> +7.3784282e+04 </wgt>
<wgt id='1533'> +7.5341964e+04 </wgt>
<wgt id='1534'> +7.5277130e+04 </wgt>
<wgt id='1535'> +7.4275892e+04 </wgt>
<wgt id='1536'> +7.4777747e+04 </wgt>
<wgt id='1537'> +7.6048748e+04 </wgt>
<wgt id='1538'> +7.6592861e+04 </wgt>
<wgt id='1539'> +7.4647727e+04 </wgt>
<wgt id='1540'> +7.5061646e+04 </wgt>
<wgt id='1541'> +7.4664807e+04 </wgt>
<wgt id='1542'> +7.5489005e+04 </wgt>
<wgt id='1543'> +7.4926047e+04 </wgt>
<wgt id='1544'> +7.5637700e+04 </wgt>
<wgt id='1545'> +7.4453328e+04 </wgt>
<wgt id='1546'> +7.4474724e+04 </wgt>
<wgt id='1547'> +7.5041596e+04 </wgt>
<wgt id='1548'> +7.4025462e+04 </wgt>
<wgt id='1549'> +7.5433765e+04 </wgt>
<wgt id='1550'> +7.5160147e+04 </wgt>
<wgt id='1551'> +7.6319514e+04 </wgt>
<wgt id='1552'> +7.3738373e+04 </wgt>
<wgt id='1553'> +7.5819379e+04 </wgt>
<wgt id='1554'> +7.4408398e+04 </wgt>
<wgt id='1555'> +7.5083987e+04 </wgt>
<wgt id='1556'> +7.4662306e+04 </wgt>
<wgt id='1557'> +7.4570386e+04 </wgt>
<wgt id='1558'> +7.5329303e+04 </wgt>
<wgt id='1559'> +7.5423832e+04 </wgt>
<wgt id='1560'> +7.4207674e+04 </wgt>
<wgt id='1561'> +7.6122074e+04 </wgt>
<wgt id='1562'> +7.5050189e+04 </wgt>
<wgt id='1563'> +7.6029947e+04 </wgt>
<wgt id='1564'> +7.4113116e+04 </wgt>
<wgt id='1565'> +7.3899322e+04 </wgt>
<wgt id='1566'> +7.4845092e+04 </wgt>
<wgt id='1567'> +7.5675867e+04 </wgt>
<wgt id='1568'> +7.4291548e+04 </wgt>
<wgt id='1569'> +7.5245260e+04 </wgt>
<wgt id='1570'> +7.4665955e+04 </wgt>
<wgt id='1571'> +7.5555891e+04 </wgt>
<wgt id='1572'> +7.4444363e+04 </wgt>
<wgt id='1573'> +7.5015825e+04 </wgt>
<wgt id='1574'> +7.4088827e+04 </wgt>
<wgt id='1575'> +7.4025435e+04 </wgt>
<wgt id='1576'> +7.5029814e+04 </wgt>
<wgt id='1577'> +7.3511046e+04 </wgt>
<wgt id='1578'> +7.4354621e+04 </wgt>
<wgt id='1579'> +7.4802244e+04 </wgt>
<wgt id='1580'> +7.5593907e+04 </wgt>
<wgt id='1581'> +7.5856872e+04 </wgt>
<wgt id='1582'> +7.4714246e+04 </wgt>
<wgt id='1583'> +7.4341317e+04 </wgt>
<wgt id='1584'> +7.4169053e+04 </wgt>
<wgt id='1585'> +7.4875326e+04 </wgt>
<wgt id='1586'> +8.0529218e+04 </wgt>
<wgt id='1587'> +7.3256636e+04 </wgt>
<wgt id='1588'> +7.3769081e+04 </wgt>
<wgt id='1589'> +7.4010038e+04 </wgt>
<wgt id='1590'> +7.4379955e+04 </wgt>
<wgt id='1591'> +7.4591740e+04 </wgt>
<wgt id='1592'> +7.4925121e+04 </wgt>
<wgt id='1593'> +7.3700602e+04 </wgt>
<wgt id='1594'> +7.4238522e+04 </wgt>
<wgt id='1595'> +7.4502422e+04 </wgt>
<wgt id='1596'> +7.4592732e+04 </wgt>
<wgt id='1597'> +7.2548869e+04 </wgt>
<wgt id='1598'> +7.4304836e+04 </wgt>
<wgt id='1599'> +7.3260035e+04 </wgt>
<wgt id='1600'> +7.3483809e+04 </wgt>
<wgt id='1601'> +7.3901872e+04 </wgt>
<wgt id='1602'> +7.3136206e+04 </wgt>
<wgt id='1603'> +7.4313662e+04 </wgt>
<wgt id='1604'> +7.3705335e+04 </wgt>
<wgt id='1605'> +7.3965541e+04 </wgt>
<wgt id='1606'> +7.2179528e+04 </wgt>
<wgt id='1607'> +7.5163944e+04 </wgt>
<wgt id='1608'> +7.3388811e+04 </wgt>
<wgt id='1609'> +7.3228325e+04 </wgt>
<wgt id='1610'> +7.4441558e+04 </wgt>
<wgt id='1611'> +7.2854317e+04 </wgt>
<wgt id='1612'> +7.3434573e+04 </wgt>
<wgt id='1613'> +7.3650730e+04 </wgt>
<wgt id='1614'> +7.3322342e+04 </wgt>
<wgt id='1615'> +7.4345639e+04 </wgt>
<wgt id='1616'> +7.3244769e+04 </wgt>
<wgt id='1617'> +7.3732566e+04 </wgt>
<wgt id='1618'> +7.3729486e+04 </wgt>
<wgt id='1619'> +7.3600975e+04 </wgt>
<wgt id='1620'> +7.3021508e+04 </wgt>
<wgt id='1621'> +7.4173994e+04 </wgt>
<wgt id='1622'> +7.3487850e+04 </wgt>
<wgt id='1623'> +7.3719019e+04 </wgt>
<wgt id='1624'> +7.3828732e+04 </wgt>
<wgt id='1625'> +7.2635145e+04 </wgt>
<wgt id='1626'> +7.2888933e+04 </wgt>
<wgt id='1627'> +7.4431554e+04 </wgt>
<wgt id='1628'> +7.2602149e+04 </wgt>
<wgt id='1629'> +7.4543713e+04 </wgt>
<wgt id='1630'> +7.2984173e+04 </wgt>
<wgt id='1631'> +7.4030235e+04 </wgt>
<wgt id='1632'> +7.4047484e+04 </wgt>
<wgt id='1633'> +7.3304357e+04 </wgt>
<wgt id='1634'> +7.4466446e+04 </wgt>
<wgt id='1635'> +7.2997297e+04 </wgt>
<wgt id='1636'> +7.4138128e+04 </wgt>
<wgt id='1637'> +7.3768301e+04 </wgt>
<wgt id='1638'> +7.3308473e+04 </wgt>
<wgt id='1639'> +7.3758507e+04 </wgt>
<wgt id='1640'> +7.4680825e+04 </wgt>
<wgt id='1641'> +7.2851347e+04 </wgt>
<wgt id='1642'> +7.3508184e+04 </wgt>
<wgt id='1643'> +7.3776843e+04 </wgt>
<wgt id='1644'> +7.4563893e+04 </wgt>
<wgt id='1645'> +7.2670927e+04 </wgt>
<wgt id='1646'> +7.3573552e+04 </wgt>
<wgt id='1647'> +7.4175138e+04 </wgt>
<wgt id='1648'> +7.3466486e+04 </wgt>
<wgt id='1649'> +7.3709874e+04 </wgt>
<wgt id='1650'> +7.4412491e+04 </wgt>
<wgt id='1651'> +7.2753538e+04 </wgt>
<wgt id='1652'> +7.4076608e+04 </wgt>
<wgt id='1653'> +7.3896527e+04 </wgt>
<wgt id='1654'> +7.3493333e+04 </wgt>
<wgt id='1655'> +7.3288981e+04 </wgt>
<wgt id='1656'> +7.5562775e+04 </wgt>
<wgt id='1657'> +7.6240529e+04 </wgt>
<wgt id='1658'> +7.5859099e+04 </wgt>
<wgt id='1659'> +7.7066159e+04 </wgt>
<wgt id='1660'> +7.4664147e+04 </wgt>
<wgt id='1661'> +7.5845752e+04 </wgt>
<wgt id='1662'> +7.4915218e+04 </wgt>
<wgt id='1663'> +7.5394457e+04 </wgt>
<wgt id='1664'> +7.5235323e+04 </wgt>
<wgt id='1665'> +7.5043094e+04 </wgt>
<wgt id='1666'> +7.5654299e+04 </wgt>
<wgt id='1667'> +7.5037327e+04 </wgt>
<wgt id='1668'> +7.5982818e+04 </wgt>
<wgt id='1669'> +7.6102814e+04 </wgt>
<wgt id='1670'> +7.4717705e+04 </wgt>
<wgt id='1671'> +7.5291743e+04 </wgt>
<wgt id='1672'> +7.6287660e+04 </wgt>
<wgt id='1673'> +7.6003114e+04 </wgt>
<wgt id='1674'> +7.5288998e+04 </wgt>
<wgt id='1675'> +7.5934177e+04 </wgt>
<wgt id='1676'> +7.4974673e+04 </wgt>
<wgt id='1677'> +7.5005820e+04 </wgt>
<wgt id='1678'> +7.6099377e+04 </wgt>
<wgt id='1679'> +7.5190334e+04 </wgt>
<wgt id='1680'> +7.6563373e+04 </wgt>
<wgt id='1681'> +7.6040073e+04 </wgt>
<wgt id='1682'> +7.4696847e+04 </wgt>
<wgt id='1683'> +7.4295865e+04 </wgt>
<wgt id='1684'> +7.6616736e+04 </wgt>
<wgt id='1685'> +7.5960216e+04 </wgt>
<wgt id='1686'> +7.5188326e+04 </wgt>
<wgt id='1687'> +7.5586793e+04 </wgt>
<wgt id='1688'> +7.5494324e+04 </wgt>
<wgt id='1689'> +7.4642591e+04 </wgt>
<wgt id='1690'> +7.6820549e+04 </wgt>
<wgt id='1691'> +7.5425443e+04 </wgt>
<wgt id='1692'> +7.5538529e+04 </wgt>
<wgt id='1693'> +7.5785723e+04 </wgt>
<wgt id='1694'> +7.5833507e+04 </wgt>
<wgt id='1695'> +7.5685683e+04 </wgt>
<wgt id='1696'> +7.5441055e+04 </wgt>
<wgt id='1697'> +7.4990947e+04 </wgt>
<wgt id='1698'> +7.6240028e+04 </wgt>
<wgt id='1699'> +7.5693631e+04 </wgt>
<wgt id='1700'> +7.5019470e+04 </wgt>
<wgt id='1701'> +7.5208106e+04 </wgt>
<wgt id='1702'> +7.6193521e+04 </wgt>
<wgt id='1703'> +7.5656669e+04 </wgt>
<wgt id='1704'> +7.5628932e+04 </wgt>
<wgt id='1705'> +7.5164258e+04 </wgt>
<wgt id='1706'> +7.5863928e+04 </wgt>
<wgt id='1707'> +7.4534457e+04 </wgt>
<wgt id='1708'> +7.6192160e+04 </wgt>
<wgt id='1709'> +7.4913500e+04 </wgt>
<wgt id='1710'> +7.6213463e+04 </wgt>
<wgt id='1711'> +7.5912370e+04 </wgt>
<wgt id='1712'> +7.5067414e+04 </wgt>
<wgt id='1713'> +7.5843667e+04 </wgt>
<wgt id='1714'> +7.4988239e+04 </wgt>
<wgt id='1715'> +7.3392604e+04 </wgt>
<wgt id='1716'> +7.4984060e+04 </wgt>
<wgt id='1717'> +7.2990941e+04 </wgt>
<wgt id='1718'> +7.2961857e+04 </wgt>
<wgt id='1719'> +7.3028163e+04 </wgt>
<wgt id='1720'> +7.2993908e+04 </wgt>
<wgt id='1721'> +7.2988228e+04 </wgt>
<wgt id='1722'> +7.3062733e+04 </wgt>
<wgt id='1723'> +7.2873407e+04 </wgt>
<wgt id='1724'> +7.3083366e+04 </wgt>
<wgt id='1725'> +7.2915769e+04 </wgt>
<wgt id='1726'> +7.3016753e+04 </wgt>
<wgt id='1727'> +7.2964315e+04 </wgt>
<wgt id='1728'> +7.2912232e+04 </wgt>
<wgt id='1729'> +7.3066458e+04 </wgt>
<wgt id='1730'> +7.2742929e+04 </wgt>
<wgt id='1731'> +7.3166404e+04 </wgt>
<wgt id='1732'> +7.3194454e+04 </wgt>
<wgt id='1733'> +7.3194454e+04 </wgt>
<wgt id='1734'> +7.3009761e+04 </wgt>
<wgt id='1735'> +7.2976006e+04 </wgt>
<wgt id='1736'> +7.3050824e+04 </wgt>
<wgt id='1737'> +7.2907559e+04 </wgt>
<wgt id='1738'> +7.2984230e+04 </wgt>
<wgt id='1739'> +7.3002592e+04 </wgt>
<wgt id='1740'> +7.2905377e+04 </wgt>
<wgt id='1741'> +7.3196655e+04 </wgt>
<wgt id='1742'> +7.3071879e+04 </wgt>
<wgt id='1743'> +7.2896733e+04 </wgt>
<wgt id='1744'> +7.2964324e+04 </wgt>
<wgt id='1745'> +7.3063403e+04 </wgt>
<wgt id='1746'> +7.2094539e+04 </wgt>
<wgt id='1747'> +7.3497564e+04 </wgt>
<wgt id='1748'> +7.3217043e+04 </wgt>
<wgt id='1749'> +7.2275309e+04 </wgt>
<wgt id='1750'> +7.2955995e+04 </wgt>
<wgt id='1751'> +7.3029047e+04 </wgt>
<wgt id='1752'> +7.3234904e+04 </wgt>
<wgt id='1753'> +7.2654776e+04 </wgt>
<wgt id='1754'> +7.3341495e+04 </wgt>
<wgt id='1755'> +7.2794738e+04 </wgt>
<wgt id='1756'> +7.2800837e+04 </wgt>
<wgt id='1757'> +7.3496136e+04 </wgt>
<wgt id='1758'> +7.2572796e+04 </wgt>
<wgt id='1759'> +7.3288737e+04 </wgt>
<wgt id='1760'> +7.2550375e+04 </wgt>
<wgt id='1761'> +7.3425158e+04 </wgt>
<wgt id='1762'> +7.2805426e+04 </wgt>
<wgt id='1763'> +7.3326254e+04 </wgt>
<wgt id='1764'> +7.2943375e+04 </wgt>
<wgt id='1765'> +7.3233529e+04 </wgt>
<wgt id='1766'> +7.3026643e+04 </wgt>
<wgt id='1767'> +7.2991413e+04 </wgt>
<wgt id='1768'> +7.3003192e+04 </wgt>
<wgt id='1769'> +7.2995597e+04 </wgt>
<wgt id='1770'> +7.2782479e+04 </wgt>
<wgt id='1771'> +7.3212661e+04 </wgt>
<wgt id='1772'> +7.3083160e+04 </wgt>
<wgt id='1773'> +7.2849212e+04 </wgt>
<wgt id='1774'> +7.3037279e+04 </wgt>
<wgt id='1775'> +7.2938547e+04 </wgt>
<wgt id='1776'> +7.3120632e+04 </wgt>
<wgt id='1777'> +7.2940266e+04 </wgt>
<wgt id='1778'> +7.3054394e+04 </wgt>
<wgt id='1779'> +7.2911699e+04 </wgt>
<wgt id='1780'> +7.3031493e+04 </wgt>
<wgt id='1781'> +7.3094496e+04 </wgt>
<wgt id='1782'> +7.2990941e+04 </wgt>
<wgt id='1783'> +7.2998294e+04 </wgt>
<wgt id='1784'> +7.3482465e+04 </wgt>
<wgt id='1785'> +7.3515823e+04 </wgt>
<wgt id='1786'> +7.3299184e+04 </wgt>
<wgt id='1787'> +7.3505601e+04 </wgt>
<wgt id='1788'> +7.3425832e+04 </wgt>
<wgt id='1789'> +7.3511952e+04 </wgt>
<wgt id='1790'> +7.3167881e+04 </wgt>
<wgt id='1791'> +7.3447852e+04 </wgt>
<wgt id='1792'> +7.3052577e+04 </wgt>
<wgt id='1793'> +7.3705840e+04 </wgt>
<wgt id='1794'> +7.3770662e+04 </wgt>
<wgt id='1795'> +7.3816136e+04 </wgt>
<wgt id='1796'> +7.3599050e+04 </wgt>
<wgt id='1797'> +7.3732517e+04 </wgt>
<wgt id='1798'> +7.3503387e+04 </wgt>
<wgt id='1799'> +7.4279293e+04 </wgt>
<wgt id='1800'> +7.3841300e+04 </wgt>
<wgt id='1801'> +7.3391156e+04 </wgt>
<wgt id='1802'> +7.4165990e+04 </wgt>
<wgt id='1803'> +7.3447553e+04 </wgt>
<wgt id='1804'> +7.3116819e+04 </wgt>
<wgt id='1805'> +7.3468252e+04 </wgt>
<wgt id='1806'> +7.3307680e+04 </wgt>
<wgt id='1807'> +7.3469676e+04 </wgt>
<wgt id='1808'> +7.3485529e+04 </wgt>
<wgt id='1809'> +7.3083628e+04 </wgt>
<wgt id='1810'> +7.3471275e+04 </wgt>
<wgt id='1811'> +7.3450198e+04 </wgt>
<wgt id='1812'> +7.3482608e+04 </wgt>
<wgt id='1813'> +7.3643448e+04 </wgt>
<wgt id='1814'> +7.3429230e+04 </wgt>
<wgt id='1815'> +7.3431064e+04 </wgt>
<wgt id='1816'> +7.3432246e+04 </wgt>
<wgt id='1817'> +7.3220395e+04 </wgt>
<wgt id='1818'> +7.3533611e+04 </wgt>
<wgt id='1819'> +7.3485851e+04 </wgt>
<wgt id='1820'> +7.3484913e+04 </wgt>
<wgt id='1821'> +7.3360486e+04 </wgt>
<wgt id='1822'> +7.3392557e+04 </wgt>
<wgt id='1823'> +7.3387081e+04 </wgt>
<wgt id='1824'> +7.3547136e+04 </wgt>
<wgt id='1825'> +7.3102564e+04 </wgt>
<wgt id='1826'> +7.4048982e+04 </wgt>
<wgt id='1827'> +8.0787037e+04 </wgt>
<wgt id='1828'> +8.0828460e+04 </wgt>
<wgt id='1829'> +8.0774204e+04 </wgt>
<wgt id='1830'> +8.0946533e+04 </wgt>
<wgt id='1831'> +8.0655639e+04 </wgt>
<wgt id='1832'> +8.0850009e+04 </wgt>
<wgt id='1833'> +8.0751768e+04 </wgt>
<wgt id='1834'> +8.0556229e+04 </wgt>
<wgt id='1835'> +8.1039693e+04 </wgt>
<wgt id='1836'> +8.1062439e+04 </wgt>
<wgt id='1837'> +8.0530914e+04 </wgt>
<wgt id='1838'> +8.0928991e+04 </wgt>
<wgt id='1839'> +8.0671523e+04 </wgt>
<wgt id='1840'> +8.0455175e+04 </wgt>
<wgt id='1841'> +8.1156107e+04 </wgt>
<wgt id='1842'> +8.0809180e+04 </wgt>
<wgt id='1843'> +8.1055251e+04 </wgt>
<wgt id='1844'> +8.0844858e+04 </wgt>
<wgt id='1845'> +8.0738744e+04 </wgt>
<wgt id='1846'> +8.0947143e+04 </wgt>
<wgt id='1847'> +8.0645429e+04 </wgt>
<wgt id='1848'> +8.0119269e+04 </wgt>
<wgt id='1849'> +8.1398158e+04 </wgt>
<wgt id='1850'> +8.1032744e+04 </wgt>
<wgt id='1851'> +8.0583726e+04 </wgt>
<wgt id='1852'> +8.0456958e+04 </wgt>
<wgt id='1853'> +8.0949547e+04 </wgt>
<wgt id='1854'> +8.0525180e+04 </wgt>
<wgt id='1855'> +8.0927841e+04 </wgt>
<wgt id='1856'> +7.6893690e+04 </wgt>
<wgt id='1857'> +7.6878903e+04 </wgt>
<wgt id='1858'> +7.6884855e+04 </wgt>
<wgt id='1859'> +7.6939582e+04 </wgt>
<wgt id='1860'> +7.6892965e+04 </wgt>
<wgt id='1861'> +7.6819846e+04 </wgt>
<wgt id='1862'> +7.6787228e+04 </wgt>
<wgt id='1863'> +7.6738824e+04 </wgt>
<wgt id='1864'> +7.6779008e+04 </wgt>
<wgt id='1865'> +7.6914747e+04 </wgt>
<wgt id='1866'> +7.6995554e+04 </wgt>
<wgt id='1867'> +7.6724167e+04 </wgt>
<wgt id='1868'> +7.7081170e+04 </wgt>
<wgt id='1869'> +7.6987153e+04 </wgt>
<wgt id='1870'> +7.6693371e+04 </wgt>
<wgt id='1871'> +7.6851745e+04 </wgt>
<wgt id='1872'> +7.7023430e+04 </wgt>
<wgt id='1873'> +7.6863799e+04 </wgt>
<wgt id='1874'> +7.6721838e+04 </wgt>
<wgt id='1875'> +7.6812667e+04 </wgt>
<wgt id='1876'> +7.6545320e+04 </wgt>
<wgt id='1877'> +7.6933261e+04 </wgt>
<wgt id='1878'> +7.6644402e+04 </wgt>
<wgt id='1879'> +7.6990382e+04 </wgt>
<wgt id='1880'> +7.7167725e+04 </wgt>
<wgt id='1881'> +7.7162529e+04 </wgt>
<wgt id='1882'> +7.6727212e+04 </wgt>
<wgt id='1883'> +7.6684309e+04 </wgt>
<wgt id='1884'> +7.6846312e+04 </wgt>
<wgt id='1885'> +7.6298265e+04 </wgt>
<wgt id='1886'> +8.5001498e+04 </wgt>
<wgt id='1887'> +9.5733837e+04 </wgt>
<wgt id='1888'> +8.4950969e+04 </wgt>
<wgt id='1889'> +9.9684885e+04 </wgt>
</rwgt>
</event>
<event npLO=" -1 " npNLO=" 0 ">
 5      0 +7.4519530e+04 2.45951350e+01 7.55820760e-03 1.19993220e-01
        2 -1    0    0  501    0 +0.0000000000e+00 +0.0000000000e+00 +1.7814190463e+02 1.7814190463e+02 0.0000000000e+00 0.0000e+00 -1.0000e+00
       -1 -1    0    0    0  501 +0.0000000000e+00 +0.0000000000e+00 -9.3023796171e+00 9.3023796171e+00 0.0000000000e+00 0.0000e+00 1.0000e+00
       24  2    1    2    0    0 +0.0000000000e+00 +0.0000000000e+00 +1.6883952501e+02 1.8744428425e+02 8.1416057939e+01 0.0000e+00 0.0000e+00
      -15  1    3    3    0    0 +9.9949935404e+00 -3.4194280466e+01 +3.9202545346e+01 5.3001377370e+01 1.7770000000e+00 0.0000e+00 1.0000e+00
       16  1    3    3    0    0 -9.9949935404e+00 +3.4194280466e+01 +1.2963697967e+02 1.3444290688e+02 0.0000000000e+00 0.0000e+00 -1.0000e+00
#aMCatNLO 1  0  0  1  2 0.24549364E+02 0.00000000E+00 -9  5  0 0.00000000E+00 0.00000000E+00 0.00000000E+00 0.00000000E+00 0.00000000E+00
<rwgt>
<wgt id='1001'> +7.4519530e+04 </wgt>
<wgt id='1002'> +7.4502868e+04 </wgt>
<wgt id='1003'> +7.4540131e+04 </wgt>
<wgt id='1004'> +8.2395628e+04 </wgt>
<wgt id='1005'> +8.2455375e+04 </wgt>
<wgt id='1006'> +8.2321047e+04 </wgt>
<wgt id='1007'> +6.5798690e+04 </wgt>
<wgt id='1008'> +6.5721106e+04 </wgt>
<wgt id='1009'> +6.5895180e+04 </wgt>
<wgt id='1010'> +7.4519530e+04 </wgt>
<wgt id='1011'> +7.4491603e+04 </wgt>
<wgt id='1012'> +7.4551713e+04 </wgt>
<wgt id='1013'> +7.4293527e+04 </wgt>
<wgt id='1014'> +7.4736783e+04 </wgt>
<wgt id='1015'> +7.4313400e+04 </wgt>
<wgt id='1016'> +7.4542350e+04 </wgt>
<wgt id='1017'> +7.4644623e+04 </wgt>
<wgt id='1018'> +7.4350516e+04 </wgt>
<wgt id='1019'> +7.4669126e+04 </wgt>
<wgt id='1020'> +7.4297746e+04 </wgt>
<wgt id='1021'> +7.4472719e+04 </wgt>
<wgt id='1022'> +7.4566392e+04 </wgt>
<wgt id='1023'> +7.4647635e+04 </wgt>
<wgt id='1024'> +7.4465802e+04 </wgt>
<wgt id='1025'> +7.5036073e+04 </wgt>
<wgt id='1026'> +7.4265326e+04 </wgt>
<wgt id='1027'> +7.4494649e+04 </wgt>
<wgt id='1028'> +7.4205218e+04 </wgt>
<wgt id='1029'> +7.4639994e+04 </wgt>
<wgt id='1030'> +7.4988747e+04 </wgt>
<wgt id='1031'> +7.4562707e+04 </wgt>
<wgt id='1032'> +7.4718854e+04 </wgt>
<wgt id='1033'> +7.4219519e+04 </wgt>
<wgt id='1034'> +7.4445502e+04 </wgt>
<wgt id='1035'> +7.4245162e+04 </wgt>
<wgt id='1036'> +7.4269314e+04 </wgt>
<wgt id='1037'> +7.5205763e+04 </wgt>
<wgt id='1038'> +7.4780888e+04 </wgt>
<wgt id='1039'> +7.4463804e+04 </wgt>
<wgt id='1040'> +7.4466156e+04 </wgt>
<wgt id='1041'> +7.4718878e+04 </wgt>
<wgt id='1042'> +7.4634136e+04 </wgt>
<wgt id='1043'> +7.4461064e+04 </wgt>
<wgt id='1044'> +7.4507469e+04 </wgt>
<wgt id='1045'> +7.4617996e+04 </wgt>
<wgt id='1046'> +7.4501920e+04 </wgt>
<wgt id='1047'> +7.4427885e+04 </wgt>
<wgt id='1048'> +7.4699117e+04 </wgt>
<wgt id='1049'> +7.4605749e+04 </wgt>
<wgt id='1050'> +7.4519164e+04 </wgt>
<wgt id='1051'> +7.4726164e+04 </wgt>
<wgt id='1052'> +7.4597703e+04 </wgt>
<wgt id='1053'> +7.4187272e+04 </wgt>
<wgt id='1054'> +7.4525522e+04 </wgt>
<wgt id='1055'> +7.4532319e+04 </wgt>
<wgt id='1056'> +7.4723978e+04 </wgt>
<wgt id='1057'> +7.4401869e+04 </wgt>
<wgt id='1058'> +7.4564358e+04 </wgt>
<wgt id='1059'> +7.4457720e+04 </wgt>
<wgt id='1060'> +7.4519193e+04 </wgt>
<wgt id='1061'> +7.4512027e+04 </wgt>
<wgt id='1062'> +7.4637625e+04 </wgt>
<wgt id='1063'> +7.4413875e+04 </wgt>
<wgt id='1064'> +7.4492678e+04 </wgt>
<wgt id='1065'> +7.4521813e+04 </wgt>
<wgt id='1066'> +7.4702958e+04 </wgt>
<wgt id='1067'> +7.4546852e+04 </wgt>
<wgt id='1068'> +7.4555799e+04 </wgt>
<wgt id='1069'> +7.4498385e+04 </wgt>
<wgt id='1070'> +7.4514047e+04 </wgt>
<wgt id='1071'> +7.4503413e+04 </wgt>
<wgt id='1072'> +7.4471309e+04 </wgt>
<wgt id='1073'> +7.4605395e+04 </wgt>
<wgt id='1074'> +7.4540271e+04 </wgt>
<wgt id='1075'> +7.4479851e+04 </wgt>
<wgt id='1076'> +7.4590053e+04 </wgt>
<wgt id='1077'> +7.4539154e+04 </wgt>
<wgt id='1078'> +7.4583636e+04 </wgt>
<wgt id='1079'> +7.4579996e+04 </wgt>
<wgt id='1080'> +7.4432874e+04 </wgt>
<wgt id='1081'> +7.4533991e+04 </wgt>
<wgt id='1082'> +7.4603544e+04 </wgt>
<wgt id='1083'> +7.4496141e+04 </wgt>
<wgt id='1084'> +7.4616422e+04 </wgt>
<wgt id='1085'> +7.4474223e+04 </wgt>
<wgt id='1086'> +7.4491298e+04 </wgt>
<wgt id='1087'> +7.4552856e+04 </wgt>
<wgt id='1088'> +7.4521412e+04 </wgt>
<wgt id='1089'> +7.4460301e+04 </wgt>
<wgt id='1090'> +7.4567198e+04 </wgt>
<wgt id='1091'> +7.4527755e+04 </wgt>
<wgt id='1092'> +7.4507365e+04 </wgt>
<wgt id='1093'> +7.4565677e+04 </wgt>
<wgt id='1094'> +7.4552694e+04 </wgt>
<wgt id='1095'> +7.4550657e+04 </wgt>
<wgt id='1096'> +7.4499750e+04 </wgt>
<wgt id='1097'> +7.4578390e+04 </wgt>
<wgt id='1098'> +7.4497987e+04 </wgt>
<wgt id='1099'> +7.4543192e+04 </wgt>
<wgt id='1100'> +7.4537323e+04 </wgt>
<wgt id='1101'> +7.4532848e+04 </wgt>
<wgt id='1102'> +7.4538057e+04 </wgt>
<wgt id='1103'> +7.4565046e+04 </wgt>
<wgt id='1104'> +7.4540722e+04 </wgt>
<wgt id='1105'> +7.4525158e+04 </wgt>
<wgt id='1106'> +7.4529452e+04 </wgt>
<wgt id='1107'> +7.4522878e+04 </wgt>
<wgt id='1108'> +7.4527941e+04 </wgt>
<wgt id='1109'> +7.4504295e+04 </wgt>
<wgt id='1110'> +7.4519532e+04 </wgt>
<wgt id='1111'> +7.4022786e+04 </wgt>
<wgt id='1112'> +7.5032112e+04 </wgt>
<wgt id='1113'> +7.4519532e+04 </wgt>
<wgt id='1114'> +7.7893423e+04 </wgt>
<wgt id='1115'> +7.4494103e+04 </wgt>
<wgt id='1116'> +6.9597192e+04 </wgt>
<wgt id='1117'> +7.3211278e+04 </wgt>
<wgt id='1118'> +7.3702727e+04 </wgt>
<wgt id='1119'> +7.6852939e+04 </wgt>
<wgt id='1120'> +7.5341149e+04 </wgt>
<wgt id='1121'> +7.1990698e+04 </wgt>
<wgt id='1122'> +7.2675896e+04 </wgt>
<wgt id='1123'> +7.3756372e+04 </wgt>
<wgt id='1124'> +7.4255019e+04 </wgt>
<wgt id='1125'> +7.3128035e+04 </wgt>
<wgt id='1126'> +7.4670920e+04 </wgt>
<wgt id='1127'> +7.3207040e+04 </wgt>
<wgt id='1128'> +7.5284334e+04 </wgt>
<wgt id='1129'> +7.5702766e+04 </wgt>
<wgt id='1130'> +7.7298515e+04 </wgt>
<wgt id='1131'> +7.4419922e+04 </wgt>
<wgt id='1132'> +7.5042410e+04 </wgt>
<wgt id='1133'> +7.2382185e+04 </wgt>
<wgt id='1134'> +7.2784090e+04 </wgt>
<wgt id='1135'> +7.5265848e+04 </wgt>
<wgt id='1136'> +7.5781364e+04 </wgt>
<wgt id='1137'> +7.4757604e+04 </wgt>
<wgt id='1138'> +7.3732619e+04 </wgt>
<wgt id='1139'> +7.4850729e+04 </wgt>
<wgt id='1140'> +7.7787327e+04 </wgt>
<wgt id='1141'> +7.4376014e+04 </wgt>
<wgt id='1142'> +7.7026238e+04 </wgt>
<wgt id='1143'> +7.5659154e+04 </wgt>
<wgt id='1144'> +7.3984186e+04 </wgt>
<wgt id='1145'> +7.3425431e+04 </wgt>
<wgt id='1146'> +7.5055918e+04 </wgt>
<wgt id='1147'> +7.3661750e+04 </wgt>
<wgt id='1148'> +7.5468147e+04 </wgt>
<wgt id='1149'> +7.3888369e+04 </wgt>
<wgt id='1150'> +7.4733544e+04 </wgt>
<wgt id='1151'> +7.4208939e+04 </wgt>
<wgt id='1152'> +7.2863471e+04 </wgt>
<wgt id='1153'> +7.3747971e+04 </wgt>
<wgt id='1154'> +7.4309876e+04 </wgt>
<wgt id='1155'> +7.5838536e+04 </wgt>
<wgt id='1156'> +7.5815614e+04 </wgt>
<wgt id='1157'> +7.5291228e+04 </wgt>
<wgt id='1158'> +7.4411651e+04 </wgt>
<wgt id='1159'> +7.6416900e+04 </wgt>
<wgt id='1160'> +7.5465518e+04 </wgt>
<wgt id='1161'> +7.2356889e+04 </wgt>
<wgt id='1162'> +7.6648955e+04 </wgt>
<wgt id='1163'> +7.6426071e+04 </wgt>
<wgt id='1164'> +7.3215855e+04 </wgt>
<wgt id='1165'> +7.3530016e+04 </wgt>
<wgt id='1166'> +7.5745741e+04 </wgt>
<wgt id='1167'> +7.6719683e+04 </wgt>
<wgt id='1168'> +7.3227406e+04 </wgt>
<wgt id='1169'> +7.4367098e+04 </wgt>
<wgt id='1170'> +7.6852940e+04 </wgt>
<wgt id='1171'> +7.3533030e+04 </wgt>
<wgt id='1172'> +7.4498999e+04 </wgt>
<wgt id='1173'> +7.3953070e+04 </wgt>
<wgt id='1174'> +7.5284889e+04 </wgt>
<wgt id='1175'> +7.5038477e+04 </wgt>
<wgt id='1176'> +7.5678995e+04 </wgt>
<wgt id='1177'> +7.1819557e+04 </wgt>
<wgt id='1178'> +7.5554960e+04 </wgt>
<wgt id='1179'> +7.4124096e+04 </wgt>
<wgt id='1180'> +7.4701472e+04 </wgt>
<wgt id='1181'> +7.5881683e+04 </wgt>
<wgt id='1182'> +7.5755745e+04 </wgt>
<wgt id='1183'> +7.5102713e+04 </wgt>
<wgt id='1184'> +7.3211746e+04 </wgt>
<wgt id='1185'> +7.7480713e+04 </wgt>
<wgt id='1186'> +7.0217589e+04 </wgt>
<wgt id='1187'> +7.2328027e+04 </wgt>
<wgt id='1188'> +7.3935564e+04 </wgt>
<wgt id='1189'> +7.5365055e+04 </wgt>
<wgt id='1190'> +7.3202160e+04 </wgt>
<wgt id='1191'> +7.4952818e+04 </wgt>
<wgt id='1192'> +7.4023867e+04 </wgt>
<wgt id='1193'> +7.5182672e+04 </wgt>
<wgt id='1194'> +7.4513205e+04 </wgt>
<wgt id='1195'> +7.5702766e+04 </wgt>
<wgt id='1196'> +7.3998312e+04 </wgt>
<wgt id='1197'> +7.3831708e+04 </wgt>
<wgt id='1198'> +7.3796131e+04 </wgt>
<wgt id='1199'> +7.6932177e+04 </wgt>
<wgt id='1200'> +7.4404203e+04 </wgt>
<wgt id='1201'> +7.5832337e+04 </wgt>
<wgt id='1202'> +7.1623650e+04 </wgt>
<wgt id='1203'> +7.3942853e+04 </wgt>
<wgt id='1204'> +7.4751373e+04 </wgt>
<wgt id='1205'> +7.3319920e+04 </wgt>
<wgt id='1206'> +7.4333343e+04 </wgt>
<wgt id='1207'> +7.6131734e+04 </wgt>
<wgt id='1208'> +7.3960861e+04 </wgt>
<wgt id='1209'> +7.4002491e+04 </wgt>
<wgt id='1210'> +7.4302423e+04 </wgt>
<wgt id='1211'> +7.3602888e+04 </wgt>
<wgt id='1212'> +7.3310476e+04 </wgt>
<wgt id='1213'> +7.4271194e+04 </wgt>
<wgt id='1214'> +7.4543814e+04 </wgt>
<wgt id='1215'> +7.2892863e+04 </wgt>
<wgt id='1216'> +7.3028479e+04 </wgt>
<wgt id='1217'> +7.3125480e+04 </wgt>
<wgt id='1218'> +7.3619070e+04 </wgt>
<wgt id='1219'> +7.4608258e+04 </wgt>
<wgt id='1220'> +7.4809274e+04 </wgt>
<wgt id='1221'> +7.5652049e+04 </wgt>
<wgt id='1222'> +7.5765921e+04 </wgt>
<wgt id='1223'> +7.3360661e+04 </wgt>
<wgt id='1224'> +7.3414489e+04 </wgt>
<wgt id='1225'> +7.3453928e+04 </wgt>
<wgt id='1226'> +7.3262164e+04 </wgt>
<wgt id='1227'> +7.3735572e+04 </wgt>
<wgt id='1228'> +7.3413374e+04 </wgt>
<wgt id='1229'> +7.3139160e+04 </wgt>
<wgt id='1230'> +7.3513287e+04 </wgt>
<wgt id='1231'> +7.3504938e+04 </wgt>
<wgt id='1232'> +7.3492499e+04 </wgt>
<wgt id='1233'> +7.2983727e+04 </wgt>
<wgt id='1234'> +7.3258840e+04 </wgt>
<wgt id='1235'> +7.3459810e+04 </wgt>
<wgt id='1236'> +7.3633984e+04 </wgt>
<wgt id='1237'> +7.3376355e+04 </wgt>
<wgt id='1238'> +7.3077331e+04 </wgt>
<wgt id='1239'> +7.3849086e+04 </wgt>
<wgt id='1240'> +7.3114592e+04 </wgt>
<wgt id='1241'> +7.3594806e+04 </wgt>
<wgt id='1242'> +7.3440413e+04 </wgt>
<wgt id='1243'> +7.3110518e+04 </wgt>
<wgt id='1244'> +7.3697761e+04 </wgt>
<wgt id='1245'> +7.3305938e+04 </wgt>
<wgt id='1246'> +7.3029707e+04 </wgt>
<wgt id='1247'> +7.3842172e+04 </wgt>
<wgt id='1248'> +7.3152615e+04 </wgt>
<wgt id='1249'> +7.3448821e+04 </wgt>
<wgt id='1250'> +7.3306327e+04 </wgt>
<wgt id='1251'> +7.3289555e+04 </wgt>
<wgt id='1252'> +7.3926579e+04 </wgt>
<wgt id='1253'> +7.3412868e+04 </wgt>
<wgt id='1254'> +7.3099338e+04 </wgt>
<wgt id='1255'> +7.3462017e+04 </wgt>
<wgt id='1256'> +7.3264848e+04 </wgt>
<wgt id='1257'> +7.3453187e+04 </wgt>
<wgt id='1258'> +7.3486871e+04 </wgt>
<wgt id='1259'> +7.3385257e+04 </wgt>
<wgt id='1260'> +7.3288463e+04 </wgt>
<wgt id='1261'> +7.3386909e+04 </wgt>
<wgt id='1262'> +7.3299791e+04 </wgt>
<wgt id='1263'> +7.3343806e+04 </wgt>
<wgt id='1264'> +7.3244729e+04 </wgt>
<wgt id='1265'> +7.3281883e+04 </wgt>
<wgt id='1266'> +7.3343039e+04 </wgt>
<wgt id='1267'> +7.3345318e+04 </wgt>
<wgt id='1268'> +7.3379186e+04 </wgt>
<wgt id='1269'> +7.3353753e+04 </wgt>
<wgt id='1270'> +7.3314842e+04 </wgt>
<wgt id='1271'> +7.3443248e+04 </wgt>
<wgt id='1272'> +7.3514581e+04 </wgt>
<wgt id='1273'> +7.3327482e+04 </wgt>
<wgt id='1274'> +7.3275774e+04 </wgt>
<wgt id='1275'> +7.3311253e+04 </wgt>
<wgt id='1276'> +7.3281094e+04 </wgt>
<wgt id='1277'> +7.3408080e+04 </wgt>
<wgt id='1278'> +7.3379709e+04 </wgt>
<wgt id='1279'> +7.3565310e+04 </wgt>
<wgt id='1280'> +7.3294160e+04 </wgt>
<wgt id='1281'> +7.3275519e+04 </wgt>
<wgt id='1282'> +7.3331485e+04 </wgt>
<wgt id='1283'> +7.3434942e+04 </wgt>
<wgt id='1284'> +7.3368336e+04 </wgt>
<wgt id='1285'> +7.3382856e+04 </wgt>
<wgt id='1286'> +7.3358698e+04 </wgt>
<wgt id='1287'> +7.3412036e+04 </wgt>
<wgt id='1288'> +7.3397883e+04 </wgt>
<wgt id='1289'> +7.3289806e+04 </wgt>
<wgt id='1290'> +7.3331239e+04 </wgt>
<wgt id='1291'> +7.3361539e+04 </wgt>
<wgt id='1292'> +7.3290008e+04 </wgt>
<wgt id='1293'> +7.3291305e+04 </wgt>
<wgt id='1294'> +7.3391754e+04 </wgt>
<wgt id='1295'> +7.3417982e+04 </wgt>
<wgt id='1296'> +7.3311351e+04 </wgt>
<wgt id='1297'> +7.3345481e+04 </wgt>
<wgt id='1298'> +7.3234011e+04 </wgt>
<wgt id='1299'> +7.3340439e+04 </wgt>
<wgt id='1300'> +7.3358169e+04 </wgt>
<wgt id='1301'> +7.3350749e+04 </wgt>
<wgt id='1302'> +7.3304653e+04 </wgt>
<wgt id='1303'> +7.3402079e+04 </wgt>
<wgt id='1304'> +7.3376501e+04 </wgt>
<wgt id='1305'> +7.3404008e+04 </wgt>
<wgt id='1306'> +7.3430626e+04 </wgt>
<wgt id='1307'> +7.3354798e+04 </wgt>
<wgt id='1308'> +7.3403103e+04 </wgt>
<wgt id='1309'> +7.3319425e+04 </wgt>
<wgt id='1310'> +7.3368993e+04 </wgt>
<wgt id='1311'> +7.3335726e+04 </wgt>
<wgt id='1312'> +7.3351752e+04 </wgt>
<wgt id='1313'> +7.3392714e+04 </wgt>
<wgt id='1314'> +7.3357775e+04 </wgt>
<wgt id='1315'> +7.3377753e+04 </wgt>
<wgt id='1316'> +7.3398567e+04 </wgt>
<wgt id='1317'> +7.3326903e+04 </wgt>
<wgt id='1318'> +7.3380486e+04 </wgt>
<wgt id='1319'> +7.3381428e+04 </wgt>
<wgt id='1320'> +7.3381142e+04 </wgt>
<wgt id='1321'> +7.3324477e+04 </wgt>
<wgt id='1322'> +7.3405314e+04 </wgt>
<wgt id='1323'> +7.3355658e+04 </wgt>
<wgt id='1324'> +7.2911709e+04 </wgt>
<wgt id='1325'> +7.3954892e+04 </wgt>
<wgt id='1326'> +7.1837526e+04 </wgt>
<wgt id='1327'> +6.8553553e+04 </wgt>
<wgt id='1328'> +7.4669690e+04 </wgt>
<wgt id='1329'> +7.3948282e+04 </wgt>
<wgt id='1330'> +7.5054347e+04 </wgt>
<wgt id='1331'> +7.5110819e+04 </wgt>
<wgt id='1332'> +7.4273557e+04 </wgt>
<wgt id='1333'> +7.4518096e+04 </wgt>
<wgt id='1334'> +7.2836578e+04 </wgt>
<wgt id='1335'> +7.4695211e+04 </wgt>
<wgt id='1336'> +7.5302828e+04 </wgt>
<wgt id='1337'> +7.4334686e+04 </wgt>
<wgt id='1338'> +7.5382120e+04 </wgt>
<wgt id='1339'> +7.5258737e+04 </wgt>
<wgt id='1340'> +7.3260641e+04 </wgt>
<wgt id='1341'> +7.4197874e+04 </wgt>
<wgt id='1342'> +7.5232208e+04 </wgt>
<wgt id='1343'> +7.5633698e+04 </wgt>
<wgt id='1344'> +7.4821982e+04 </wgt>
<wgt id='1345'> +7.5672857e+04 </wgt>
<wgt id='1346'> +7.5821305e+04 </wgt>
<wgt id='1347'> +7.5447213e+04 </wgt>
<wgt id='1348'> +7.3395623e+04 </wgt>
<wgt id='1349'> +7.5386502e+04 </wgt>
<wgt id='1350'> +7.4229365e+04 </wgt>
<wgt id='1351'> +7.4559604e+04 </wgt>
<wgt id='1352'> +7.5792773e+04 </wgt>
<wgt id='1353'> +7.6400367e+04 </wgt>
<wgt id='1354'> +7.4633417e+04 </wgt>
<wgt id='1355'> +7.4664354e+04 </wgt>
<wgt id='1356'> +7.4336281e+04 </wgt>
<wgt id='1357'> +7.4532893e+04 </wgt>
<wgt id='1358'> +7.4743675e+04 </wgt>
<wgt id='1359'> +7.4467582e+04 </wgt>
<wgt id='1360'> +7.5479014e+04 </wgt>
<wgt id='1361'> +7.5889153e+04 </wgt>
<wgt id='1362'> +7.6084016e+04 </wgt>
<wgt id='1363'> +7.5173380e+04 </wgt>
<wgt id='1364'> +7.5042951e+04 </wgt>
<wgt id='1365'> +7.4925337e+04 </wgt>
<wgt id='1366'> +7.4428643e+04 </wgt>
<wgt id='1367'> +7.6013891e+04 </wgt>
<wgt id='1368'> +7.4499006e+04 </wgt>
<wgt id='1369'> +7.3537580e+04 </wgt>
<wgt id='1370'> +7.3735369e+04 </wgt>
<wgt id='1371'> +7.5312184e+04 </wgt>
<wgt id='1372'> +7.5779737e+04 </wgt>
<wgt id='1373'> +7.4039473e+04 </wgt>
<wgt id='1374'> +7.4825090e+04 </wgt>
<wgt id='1375'> +7.4453986e+04 </wgt>
<wgt id='1376'> +7.4799315e+04 </wgt>
<wgt id='1377'> +7.4486909e+04 </wgt>
<wgt id='1378'> +7.3286516e+04 </wgt>
<wgt id='1379'> +7.4733398e+04 </wgt>
<wgt id='1380'> +7.5187338e+04 </wgt>
<wgt id='1381'> +7.4976704e+04 </wgt>
<wgt id='1382'> +7.3813098e+04 </wgt>
<wgt id='1383'> +7.4466769e+04 </wgt>
<wgt id='1384'> +7.4868352e+04 </wgt>
<wgt id='1385'> +7.3752256e+04 </wgt>
<wgt id='1386'> +7.5166648e+04 </wgt>
<wgt id='1387'> +7.2959875e+04 </wgt>
<wgt id='1388'> +7.4822239e+04 </wgt>
<wgt id='1389'> +7.4272213e+04 </wgt>
<wgt id='1390'> +7.3711937e+04 </wgt>
<wgt id='1391'> +7.4375158e+04 </wgt>
<wgt id='1392'> +7.4193576e+04 </wgt>
<wgt id='1393'> +7.2781645e+04 </wgt>
<wgt id='1394'> +7.4925337e+04 </wgt>
<wgt id='1395'> +7.5675149e+04 </wgt>
<wgt id='1396'> +7.3494206e+04 </wgt>
<wgt id='1397'> +7.5145870e+04 </wgt>
<wgt id='1398'> +7.5325530e+04 </wgt>
<wgt id='1399'> +7.4904956e+04 </wgt>
<wgt id='1400'> +7.5600910e+04 </wgt>
<wgt id='1401'> +7.5068789e+04 </wgt>
<wgt id='1402'> +7.4772892e+04 </wgt>
<wgt id='1403'> +7.5113080e+04 </wgt>
<wgt id='1404'> +7.5085755e+04 </wgt>
<wgt id='1405'> +7.4269491e+04 </wgt>
<wgt id='1406'> +7.3443620e+04 </wgt>
<wgt id='1407'> +7.5585880e+04 </wgt>
<wgt id='1408'> +7.4477318e+04 </wgt>
<wgt id='1409'> +7.3112940e+04 </wgt>
<wgt id='1410'> +7.5088084e+04 </wgt>
<wgt id='1411'> +7.5267887e+04 </wgt>
<wgt id='1412'> +7.4968892e+04 </wgt>
<wgt id='1413'> +7.5605367e+04 </wgt>
<wgt id='1414'> +7.3604352e+04 </wgt>
<wgt id='1415'> +7.3991841e+04 </wgt>
<wgt id='1416'> +7.4283093e+04 </wgt>
<wgt id='1417'> +7.4554593e+04 </wgt>
<wgt id='1418'> +7.5393586e+04 </wgt>
<wgt id='1419'> +7.4150778e+04 </wgt>
<wgt id='1420'> +7.3938551e+04 </wgt>
<wgt id='1421'> +7.5049422e+04 </wgt>
<wgt id='1422'> +7.4598673e+04 </wgt>
<wgt id='1423'> +7.5367463e+04 </wgt>
<wgt id='1424'> +7.2642192e+04 </wgt>
<wgt id='1425'> +7.4028246e+04 </wgt>
<wgt id='1426'> +7.4060988e+04 </wgt>
<wgt id='1427'> +7.5240420e+04 </wgt>
<wgt id='1428'> +7.5173338e+04 </wgt>
<wgt id='1429'> +7.4617133e+04 </wgt>
<wgt id='1430'> +7.4595909e+04 </wgt>
<wgt id='1431'> +7.4608660e+04 </wgt>
<wgt id='1432'> +7.4713632e+04 </wgt>
<wgt id='1433'> +7.4670902e+04 </wgt>
<wgt id='1434'> +7.4576312e+04 </wgt>
<wgt id='1435'> +7.4470925e+04 </wgt>
<wgt id='1436'> +7.4320330e+04 </wgt>
<wgt id='1437'> +7.4970677e+04 </wgt>
<wgt id='1438'> +7.4782854e+04 </wgt>
<wgt id='1439'> +7.4346299e+04 </wgt>
<wgt id='1440'> +7.4598019e+04 </wgt>
<wgt id='1441'> +7.4469044e+04 </wgt>
<wgt id='1442'> +7.4733062e+04 </wgt>
<wgt id='1443'> +7.4508877e+04 </wgt>
<wgt id='1444'> +7.4367707e+04 </wgt>
<wgt id='1445'> +7.4702812e+04 </wgt>
<wgt id='1446'> +7.4409145e+04 </wgt>
<wgt id='1447'> +7.4433430e+04 </wgt>
<wgt id='1448'> +7.4727920e+04 </wgt>
<wgt id='1449'> +7.4633896e+04 </wgt>
<wgt id='1450'> +7.4558362e+04 </wgt>
<wgt id='1451'> +7.4515956e+04 </wgt>
<wgt id='1452'> +7.4495934e+04 </wgt>
<wgt id='1453'> +7.4593638e+04 </wgt>
<wgt id='1454'> +7.4541959e+04 </wgt>
<wgt id='1455'> +7.4703318e+04 </wgt>
<wgt id='1456'> +7.4616346e+04 </wgt>
<wgt id='1457'> +7.4636123e+04 </wgt>
<wgt id='1458'> +7.4465213e+04 </wgt>
<wgt id='1459'> +7.4473694e+04 </wgt>
<wgt id='1460'> +7.4658134e+04 </wgt>
<wgt id='1461'> +7.4578055e+04 </wgt>
<wgt id='1462'> +7.4601359e+04 </wgt>
<wgt id='1463'> +7.4617236e+04 </wgt>
<wgt id='1464'> +7.4565042e+04 </wgt>
<wgt id='1465'> +7.4633636e+04 </wgt>
<wgt id='1466'> +7.4587047e+04 </wgt>
<wgt id='1467'> +7.4658841e+04 </wgt>
<wgt id='1468'> +7.4606890e+04 </wgt>
<wgt id='1469'> +7.4590354e+04 </wgt>
<wgt id='1470'> +7.4596144e+04 </wgt>
<wgt id='1471'> +7.4570894e+04 </wgt>
<wgt id='1472'> +7.4612559e+04 </wgt>
<wgt id='1473'> +7.4650806e+04 </wgt>
<wgt id='1474'> +7.4621219e+04 </wgt>
<wgt id='1475'> +7.4607699e+04 </wgt>
<wgt id='1476'> +7.4594870e+04 </wgt>
<wgt id='1477'> +7.4598474e+04 </wgt>
<wgt id='1478'> +7.4590081e+04 </wgt>
<wgt id='1479'> +7.4616438e+04 </wgt>
<wgt id='1480'> +7.4603344e+04 </wgt>
<wgt id='1481'> +7.4627333e+04 </wgt>
<wgt id='1482'> +7.4617133e+04 </wgt>
<wgt id='1483'> +7.4595909e+04 </wgt>
<wgt id='1484'> +7.4550972e+04 </wgt>
<wgt id='1485'> +7.4905627e+04 </wgt>
<wgt id='1486'> +7.4622632e+04 </wgt>
<wgt id='1487'> +7.5066182e+04 </wgt>
<wgt id='1488'> +7.4925400e+04 </wgt>
<wgt id='1489'> +7.4829650e+04 </wgt>
<wgt id='1490'> +7.3868543e+04 </wgt>
<wgt id='1491'> +7.3548733e+04 </wgt>
<wgt id='1492'> +7.3948504e+04 </wgt>
<wgt id='1493'> +7.5007030e+04 </wgt>
<wgt id='1494'> +7.3934237e+04 </wgt>
<wgt id='1495'> +7.4238929e+04 </wgt>
<wgt id='1496'> +7.4300210e+04 </wgt>
<wgt id='1497'> +7.3418490e+04 </wgt>
<wgt id='1498'> +7.5460712e+04 </wgt>
<wgt id='1499'> +7.4915919e+04 </wgt>
<wgt id='1500'> +7.3385521e+04 </wgt>
<wgt id='1501'> +7.4317653e+04 </wgt>
<wgt id='1502'> +7.5355307e+04 </wgt>
<wgt id='1503'> +7.3586379e+04 </wgt>
<wgt id='1504'> +7.4311900e+04 </wgt>
<wgt id='1505'> +7.4239781e+04 </wgt>
<wgt id='1506'> +7.5040189e+04 </wgt>
<wgt id='1507'> +7.4334686e+04 </wgt>
<wgt id='1508'> +7.3424412e+04 </wgt>
<wgt id='1509'> +7.3836149e+04 </wgt>
<wgt id='1510'> +7.3756133e+04 </wgt>
<wgt id='1511'> +7.3854174e+04 </wgt>
<wgt id='1512'> +7.4935252e+04 </wgt>
<wgt id='1513'> +7.3837593e+04 </wgt>
<wgt id='1514'> +7.5085343e+04 </wgt>
<wgt id='1515'> +7.4480193e+04 </wgt>
<wgt id='1516'> +7.3749355e+04 </wgt>
<wgt id='1517'> +7.4857087e+04 </wgt>
<wgt id='1518'> +7.5064174e+04 </wgt>
<wgt id='1519'> +7.4560352e+04 </wgt>
<wgt id='1520'> +7.3513739e+04 </wgt>
<wgt id='1521'> +7.4173107e+04 </wgt>
<wgt id='1522'> +7.4654091e+04 </wgt>
<wgt id='1523'> +7.4413041e+04 </wgt>
<wgt id='1524'> +7.5049861e+04 </wgt>
<wgt id='1525'> +7.5069562e+04 </wgt>
<wgt id='1526'> +7.4436206e+04 </wgt>
<wgt id='1527'> +7.4904747e+04 </wgt>
<wgt id='1528'> +7.4520448e+04 </wgt>
<wgt id='1529'> +7.4755153e+04 </wgt>
<wgt id='1530'> +7.3969298e+04 </wgt>
<wgt id='1531'> +7.4055322e+04 </wgt>
<wgt id='1532'> +7.3926329e+04 </wgt>
<wgt id='1533'> +7.4395514e+04 </wgt>
<wgt id='1534'> +7.4261967e+04 </wgt>
<wgt id='1535'> +7.4100928e+04 </wgt>
<wgt id='1536'> +7.5199984e+04 </wgt>
<wgt id='1537'> +7.3878347e+04 </wgt>
<wgt id='1538'> +7.5870381e+04 </wgt>
<wgt id='1539'> +7.5076800e+04 </wgt>
<wgt id='1540'> +7.4626644e+04 </wgt>
<wgt id='1541'> +7.4972719e+04 </wgt>
<wgt id='1542'> +7.5061174e+04 </wgt>
<wgt id='1543'> +7.4832423e+04 </wgt>
<wgt id='1544'> +7.5490637e+04 </wgt>
<wgt id='1545'> +7.4681214e+04 </wgt>
<wgt id='1546'> +7.4676101e+04 </wgt>
<wgt id='1547'> +7.5142866e+04 </wgt>
<wgt id='1548'> +7.4346925e+04 </wgt>
<wgt id='1549'> +7.4802522e+04 </wgt>
<wgt id='1550'> +7.4378380e+04 </wgt>
<wgt id='1551'> +7.5502242e+04 </wgt>
<wgt id='1552'> +7.4552312e+04 </wgt>
<wgt id='1553'> +7.5416851e+04 </wgt>
<wgt id='1554'> +7.2756821e+04 </wgt>
<wgt id='1555'> +7.4981340e+04 </wgt>
<wgt id='1556'> +7.5158263e+04 </wgt>
<wgt id='1557'> +7.4078501e+04 </wgt>
<wgt id='1558'> +7.5083609e+04 </wgt>
<wgt id='1559'> +7.5594760e+04 </wgt>
<wgt id='1560'> +7.5381911e+04 </wgt>
<wgt id='1561'> +7.4923772e+04 </wgt>
<wgt id='1562'> +7.4663211e+04 </wgt>
<wgt id='1563'> +7.5384558e+04 </wgt>
<wgt id='1564'> +7.4123408e+04 </wgt>
<wgt id='1565'> +7.3824424e+04 </wgt>
<wgt id='1566'> +7.4593909e+04 </wgt>
<wgt id='1567'> +7.5751394e+04 </wgt>
<wgt id='1568'> +7.4544860e+04 </wgt>
<wgt id='1569'> +7.5535278e+04 </wgt>
<wgt id='1570'> +7.5089220e+04 </wgt>
<wgt id='1571'> +7.5413377e+04 </wgt>
<wgt id='1572'> +7.4295481e+04 </wgt>
<wgt id='1573'> +7.5131697e+04 </wgt>
<wgt id='1574'> +7.2958027e+04 </wgt>
<wgt id='1575'> +7.4525064e+04 </wgt>
<wgt id='1576'> +7.5326639e+04 </wgt>
<wgt id='1577'> +7.4179258e+04 </wgt>
<wgt id='1578'> +7.4187453e+04 </wgt>
<wgt id='1579'> +7.4551694e+04 </wgt>
<wgt id='1580'> +7.5024625e+04 </wgt>
<wgt id='1581'> +7.4921600e+04 </wgt>
<wgt id='1582'> +7.5639021e+04 </wgt>
<wgt id='1583'> +7.2585431e+04 </wgt>
<wgt id='1584'> +7.3020690e+04 </wgt>
<wgt id='1585'> +7.2762193e+04 </wgt>
<wgt id='1586'> +7.0071349e+04 </wgt>
<wgt id='1587'> +7.4424514e+04 </wgt>
<wgt id='1588'> +7.4617133e+04 </wgt>
<wgt id='1589'> +7.4485585e+04 </wgt>
<wgt id='1590'> +7.4433934e+04 </wgt>
<wgt id='1591'> +7.4595909e+04 </wgt>
<wgt id='1592'> +7.4525764e+04 </wgt>
<wgt id='1593'> +7.3275877e+04 </wgt>
<wgt id='1594'> +7.3126955e+04 </wgt>
<wgt id='1595'> +7.2512365e+04 </wgt>
<wgt id='1596'> +7.2347209e+04 </wgt>
<wgt id='1597'> +7.4328534e+04 </wgt>
<wgt id='1598'> +7.2162499e+04 </wgt>
<wgt id='1599'> +7.4050276e+04 </wgt>
<wgt id='1600'> +7.1233294e+04 </wgt>
<wgt id='1601'> +7.5111681e+04 </wgt>
<wgt id='1602'> +7.2599119e+04 </wgt>
<wgt id='1603'> +7.3986911e+04 </wgt>
<wgt id='1604'> +7.3554983e+04 </wgt>
<wgt id='1605'> +7.3290037e+04 </wgt>
<wgt id='1606'> +7.2971605e+04 </wgt>
<wgt id='1607'> +7.2781276e+04 </wgt>
<wgt id='1608'> +7.2361640e+04 </wgt>
<wgt id='1609'> +7.3312780e+04 </wgt>
<wgt id='1610'> +7.2289091e+04 </wgt>
<wgt id='1611'> +7.3872944e+04 </wgt>
<wgt id='1612'> +7.4402490e+04 </wgt>
<wgt id='1613'> +7.0843673e+04 </wgt>
<wgt id='1614'> +7.3083634e+04 </wgt>
<wgt id='1615'> +7.3559143e+04 </wgt>
<wgt id='1616'> +7.2342634e+04 </wgt>
<wgt id='1617'> +7.3760039e+04 </wgt>
<wgt id='1618'> +7.3552669e+04 </wgt>
<wgt id='1619'> +7.2657871e+04 </wgt>
<wgt id='1620'> +7.2833105e+04 </wgt>
<wgt id='1621'> +7.3404781e+04 </wgt>
<wgt id='1622'> +7.3113518e+04 </wgt>
<wgt id='1623'> +7.2780371e+04 </wgt>
<wgt id='1624'> +7.3348343e+04 </wgt>
<wgt id='1625'> +7.2203496e+04 </wgt>
<wgt id='1626'> +7.2216460e+04 </wgt>
<wgt id='1627'> +7.3984681e+04 </wgt>
<wgt id='1628'> +7.4144788e+04 </wgt>
<wgt id='1629'> +7.2707878e+04 </wgt>
<wgt id='1630'> +7.4234184e+04 </wgt>
<wgt id='1631'> +7.1802086e+04 </wgt>
<wgt id='1632'> +7.2098862e+04 </wgt>
<wgt id='1633'> +7.4023751e+04 </wgt>
<wgt id='1634'> +7.4411631e+04 </wgt>
<wgt id='1635'> +7.2045662e+04 </wgt>
<wgt id='1636'> +7.2790260e+04 </wgt>
<wgt id='1637'> +7.3834804e+04 </wgt>
<wgt id='1638'> +7.2641188e+04 </wgt>
<wgt id='1639'> +7.3484843e+04 </wgt>
<wgt id='1640'> +7.4786796e+04 </wgt>
<wgt id='1641'> +7.1839352e+04 </wgt>
<wgt id='1642'> +7.3121069e+04 </wgt>
<wgt id='1643'> +7.2947312e+04 </wgt>
<wgt id='1644'> +7.3607646e+04 </wgt>
<wgt id='1645'> +7.2084294e+04 </wgt>
<wgt id='1646'> +7.3334856e+04 </wgt>
<wgt id='1647'> +7.3324590e+04 </wgt>
<wgt id='1648'> +7.3408068e+04 </wgt>
<wgt id='1649'> +7.3274836e+04 </wgt>
<wgt id='1650'> +7.3555058e+04 </wgt>
<wgt id='1651'> +7.2950108e+04 </wgt>
<wgt id='1652'> +7.2905177e+04 </wgt>
<wgt id='1653'> +7.3083479e+04 </wgt>
<wgt id='1654'> +7.3487239e+04 </wgt>
<wgt id='1655'> +7.3720549e+04 </wgt>
<wgt id='1656'> +7.4338141e+04 </wgt>
<wgt id='1657'> +7.3929329e+04 </wgt>
<wgt id='1658'> +7.4052848e+04 </wgt>
<wgt id='1659'> +7.3904913e+04 </wgt>
<wgt id='1660'> +7.4732638e+04 </wgt>
<wgt id='1661'> +7.5085603e+04 </wgt>
<wgt id='1662'> +7.3280241e+04 </wgt>
<wgt id='1663'> +7.3804601e+04 </wgt>
<wgt id='1664'> +7.3809920e+04 </wgt>
<wgt id='1665'> +7.3438703e+04 </wgt>
<wgt id='1666'> +7.4353642e+04 </wgt>
<wgt id='1667'> +7.3347334e+04 </wgt>
<wgt id='1668'> +7.5013939e+04 </wgt>
<wgt id='1669'> +7.4774559e+04 </wgt>
<wgt id='1670'> +7.3419232e+04 </wgt>
<wgt id='1671'> +7.4409963e+04 </wgt>
<wgt id='1672'> +7.4250872e+04 </wgt>
<wgt id='1673'> +7.4919758e+04 </wgt>
<wgt id='1674'> +7.3951663e+04 </wgt>
<wgt id='1675'> +7.4868870e+04 </wgt>
<wgt id='1676'> +7.3801768e+04 </wgt>
<wgt id='1677'> +7.3404737e+04 </wgt>
<wgt id='1678'> +7.5054227e+04 </wgt>
<wgt id='1679'> +7.4175025e+04 </wgt>
<wgt id='1680'> +7.5111711e+04 </wgt>
<wgt id='1681'> +7.3745175e+04 </wgt>
<wgt id='1682'> +7.4349941e+04 </wgt>
<wgt id='1683'> +7.4938495e+04 </wgt>
<wgt id='1684'> +7.3760480e+04 </wgt>
<wgt id='1685'> +7.5014938e+04 </wgt>
<wgt id='1686'> +7.3396574e+04 </wgt>
<wgt id='1687'> +7.5047558e+04 </wgt>
<wgt id='1688'> +7.3146613e+04 </wgt>
<wgt id='1689'> +7.4783933e+04 </wgt>
<wgt id='1690'> +7.4127591e+04 </wgt>
<wgt id='1691'> +7.4104188e+04 </wgt>
<wgt id='1692'> +7.4067518e+04 </wgt>
<wgt id='1693'> +7.5375531e+04 </wgt>
<wgt id='1694'> +7.3693253e+04 </wgt>
<wgt id='1695'> +7.4304116e+04 </wgt>
<wgt id='1696'> +7.4035344e+04 </wgt>
<wgt id='1697'> +7.5044925e+04 </wgt>
<wgt id='1698'> +7.3769762e+04 </wgt>
<wgt id='1699'> +7.2910441e+04 </wgt>
<wgt id='1700'> +7.6072228e+04 </wgt>
<wgt id='1701'> +7.4065298e+04 </wgt>
<wgt id='1702'> +7.4712028e+04 </wgt>
<wgt id='1703'> +7.4580190e+04 </wgt>
<wgt id='1704'> +7.4413311e+04 </wgt>
<wgt id='1705'> +7.3402212e+04 </wgt>
<wgt id='1706'> +7.4941892e+04 </wgt>
<wgt id='1707'> +7.3002517e+04 </wgt>
<wgt id='1708'> +7.5262613e+04 </wgt>
<wgt id='1709'> +7.3893405e+04 </wgt>
<wgt id='1710'> +7.4939949e+04 </wgt>
<wgt id='1711'> +7.3257056e+04 </wgt>
<wgt id='1712'> +7.4822775e+04 </wgt>
<wgt id='1713'> +7.4100632e+04 </wgt>
<wgt id='1714'> +7.4321441e+04 </wgt>
<wgt id='1715'> +7.2062608e+04 </wgt>
<wgt id='1716'> +7.4438778e+04 </wgt>
<wgt id='1717'> +7.0508023e+04 </wgt>
<wgt id='1718'> +7.0546578e+04 </wgt>
<wgt id='1719'> +7.0457246e+04 </wgt>
<wgt id='1720'> +7.0301033e+04 </wgt>
<wgt id='1721'> +7.0697356e+04 </wgt>
<wgt id='1722'> +7.0355604e+04 </wgt>
<wgt id='1723'> +7.0758043e+04 </wgt>
<wgt id='1724'> +7.0780038e+04 </wgt>
<wgt id='1725'> +7.0287096e+04 </wgt>
<wgt id='1726'> +7.0407281e+04 </wgt>
<wgt id='1727'> +7.0611671e+04 </wgt>
<wgt id='1728'> +6.9853571e+04 </wgt>
<wgt id='1729'> +7.1143945e+04 </wgt>
<wgt id='1730'> +7.0717136e+04 </wgt>
<wgt id='1731'> +7.0359365e+04 </wgt>
<wgt id='1732'> +7.0820447e+04 </wgt>
<wgt id='1733'> +7.0820447e+04 </wgt>
<wgt id='1734'> +7.0484944e+04 </wgt>
<wgt id='1735'> +7.0519953e+04 </wgt>
<wgt id='1736'> +7.0513796e+04 </wgt>
<wgt id='1737'> +7.0503575e+04 </wgt>
<wgt id='1738'> +7.0808676e+04 </wgt>
<wgt id='1739'> +6.9973034e+04 </wgt>
<wgt id='1740'> +7.0418447e+04 </wgt>
<wgt id='1741'> +7.0722210e+04 </wgt>
<wgt id='1742'> +7.0661931e+04 </wgt>
<wgt id='1743'> +7.0333841e+04 </wgt>
<wgt id='1744'> +7.0358145e+04 </wgt>
<wgt id='1745'> +7.0917255e+04 </wgt>
<wgt id='1746'> +7.0305534e+04 </wgt>
<wgt id='1747'> +7.0604885e+04 </wgt>
<wgt id='1748'> +7.0622352e+04 </wgt>
<wgt id='1749'> +7.0075488e+04 </wgt>
<wgt id='1750'> +7.0484102e+04 </wgt>
<wgt id='1751'> +7.0533021e+04 </wgt>
<wgt id='1752'> +7.0284309e+04 </wgt>
<wgt id='1753'> +7.0799429e+04 </wgt>
<wgt id='1754'> +7.0580749e+04 </wgt>
<wgt id='1755'> +7.0462814e+04 </wgt>
<wgt id='1756'> +7.0251545e+04 </wgt>
<wgt id='1757'> +7.1167503e+04 </wgt>
<wgt id='1758'> +7.0873868e+04 </wgt>
<wgt id='1759'> +7.0070588e+04 </wgt>
<wgt id='1760'> +7.1021962e+04 </wgt>
<wgt id='1761'> +7.0090917e+04 </wgt>
<wgt id='1762'> +7.0482216e+04 </wgt>
<wgt id='1763'> +7.0277246e+04 </wgt>
<wgt id='1764'> +7.0367719e+04 </wgt>
<wgt id='1765'> +7.1160676e+04 </wgt>
<wgt id='1766'> +7.0446862e+04 </wgt>
<wgt id='1767'> +7.0625759e+04 </wgt>
<wgt id='1768'> +7.0361104e+04 </wgt>
<wgt id='1769'> +7.0642061e+04 </wgt>
<wgt id='1770'> +7.0318794e+04 </wgt>
<wgt id='1771'> +7.0602025e+04 </wgt>
<wgt id='1772'> +7.0798668e+04 </wgt>
<wgt id='1773'> +7.0286061e+04 </wgt>
<wgt id='1774'> +7.0155903e+04 </wgt>
<wgt id='1775'> +7.0734982e+04 </wgt>
<wgt id='1776'> +7.0541327e+04 </wgt>
<wgt id='1777'> +7.0509495e+04 </wgt>
<wgt id='1778'> +7.0166899e+04 </wgt>
<wgt id='1779'> +7.0546345e+04 </wgt>
<wgt id='1780'> +7.1173891e+04 </wgt>
<wgt id='1781'> +7.0643054e+04 </wgt>
<wgt id='1782'> +7.0508023e+04 </wgt>
<wgt id='1783'> +7.0491476e+04 </wgt>
<wgt id='1784'> +7.2455141e+04 </wgt>
<wgt id='1785'> +7.2719894e+04 </wgt>
<wgt id='1786'> +7.1186555e+04 </wgt>
<wgt id='1787'> +7.2520467e+04 </wgt>
<wgt id='1788'> +7.2294719e+04 </wgt>
<wgt id='1789'> +7.2537742e+04 </wgt>
<wgt id='1790'> +7.2802655e+04 </wgt>
<wgt id='1791'> +7.2652030e+04 </wgt>
<wgt id='1792'> +7.1929643e+04 </wgt>
<wgt id='1793'> +7.2823630e+04 </wgt>
<wgt id='1794'> +7.2509826e+04 </wgt>
<wgt id='1795'> +7.1953352e+04 </wgt>
<wgt id='1796'> +7.2539936e+04 </wgt>
<wgt id='1797'> +7.2464004e+04 </wgt>
<wgt id='1798'> +7.2716809e+04 </wgt>
<wgt id='1799'> +7.2975304e+04 </wgt>
<wgt id='1800'> +7.2622137e+04 </wgt>
<wgt id='1801'> +7.3647312e+04 </wgt>
<wgt id='1802'> +7.3230896e+04 </wgt>
<wgt id='1803'> +7.2577594e+04 </wgt>
<wgt id='1804'> +7.2530696e+04 </wgt>
<wgt id='1805'> +7.2492708e+04 </wgt>
<wgt id='1806'> +7.2432167e+04 </wgt>
<wgt id='1807'> +7.2464491e+04 </wgt>
<wgt id='1808'> +7.2506650e+04 </wgt>
<wgt id='1809'> +7.2505573e+04 </wgt>
<wgt id='1810'> +7.2407282e+04 </wgt>
<wgt id='1811'> +7.2443108e+04 </wgt>
<wgt id='1812'> +7.2448794e+04 </wgt>
<wgt id='1813'> +7.2331576e+04 </wgt>
<wgt id='1814'> +7.2589509e+04 </wgt>
<wgt id='1815'> +7.2353927e+04 </wgt>
<wgt id='1816'> +7.2484587e+04 </wgt>
<wgt id='1817'> +7.2437694e+04 </wgt>
<wgt id='1818'> +7.2442414e+04 </wgt>
<wgt id='1819'> +7.2315580e+04 </wgt>
<wgt id='1820'> +7.2491955e+04 </wgt>
<wgt id='1821'> +7.2484899e+04 </wgt>
<wgt id='1822'> +7.2307183e+04 </wgt>
<wgt id='1823'> +7.2472660e+04 </wgt>
<wgt id='1824'> +7.2448634e+04 </wgt>
<wgt id='1825'> +7.2212603e+04 </wgt>
<wgt id='1826'> +7.2942841e+04 </wgt>
<wgt id='1827'> +8.0868690e+04 </wgt>
<wgt id='1828'> +8.1051106e+04 </wgt>
<wgt id='1829'> +8.0710003e+04 </wgt>
<wgt id='1830'> +8.0842242e+04 </wgt>
<wgt id='1831'> +8.0917848e+04 </wgt>
<wgt id='1832'> +8.0983152e+04 </wgt>
<wgt id='1833'> +8.0776762e+04 </wgt>
<wgt id='1834'> +8.0559124e+04 </wgt>
<wgt id='1835'> +8.1185315e+04 </wgt>
<wgt id='1836'> +8.1124708e+04 </wgt>
<wgt id='1837'> +8.0628014e+04 </wgt>
<wgt id='1838'> +8.0878440e+04 </wgt>
<wgt id='1839'> +8.0880517e+04 </wgt>
<wgt id='1840'> +8.0667808e+04 </wgt>
<wgt id='1841'> +8.1096330e+04 </wgt>
<wgt id='1842'> +8.0860336e+04 </wgt>
<wgt id='1843'> +8.1026368e+04 </wgt>
<wgt id='1844'> +8.0831628e+04 </wgt>
<wgt id='1845'> +8.0910018e+04 </wgt>
<wgt id='1846'> +8.0960927e+04 </wgt>
<wgt id='1847'> +8.0791345e+04 </wgt>
<wgt id='1848'> +8.0281023e+04 </wgt>
<wgt id='1849'> +8.1380308e+04 </wgt>
<wgt id='1850'> +8.0871975e+04 </wgt>
<wgt id='1851'> +8.0900994e+04 </wgt>
<wgt id='1852'> +8.0681187e+04 </wgt>
<wgt id='1853'> +8.0916754e+04 </wgt>
<wgt id='1854'> +8.0768233e+04 </wgt>
<wgt id='1855'> +8.0952503e+04 </wgt>
<wgt id='1856'> +7.0719945e+04 </wgt>
<wgt id='1857'> +7.0708460e+04 </wgt>
<wgt id='1858'> +7.0694923e+04 </wgt>
<wgt id='1859'> +7.0752813e+04 </wgt>
<wgt id='1860'> +7.0721900e+04 </wgt>
<wgt id='1861'> +7.0815545e+04 </wgt>
<wgt id='1862'> +7.0419161e+04 </wgt>
<wgt id='1863'> +7.0773331e+04 </wgt>
<wgt id='1864'> +7.0604875e+04 </wgt>
<wgt id='1865'> +7.0577989e+04 </wgt>
<wgt id='1866'> +7.0905999e+04 </wgt>
<wgt id='1867'> +7.0687293e+04 </wgt>
<wgt id='1868'> +7.0667657e+04 </wgt>
<wgt id='1869'> +7.0801238e+04 </wgt>
<wgt id='1870'> +7.0623268e+04 </wgt>
<wgt id='1871'> +7.0820892e+04 </wgt>
<wgt id='1872'> +7.0685350e+04 </wgt>
<wgt id='1873'> +7.0713988e+04 </wgt>
<wgt id='1874'> +7.0795158e+04 </wgt>
<wgt id='1875'> +7.0773185e+04 </wgt>
<wgt id='1876'> +7.0499271e+04 </wgt>
<wgt id='1877'> +7.0601884e+04 </wgt>
<wgt id='1878'> +7.0600689e+04 </wgt>
<wgt id='1879'> +7.0800579e+04 </wgt>
<wgt id='1880'> +7.0843000e+04 </wgt>
<wgt id='1881'> +7.0917140e+04 </wgt>
<wgt id='1882'> +7.0675501e+04 </wgt>
<wgt id='1883'> +7.0796244e+04 </wgt>
<wgt id='1884'> +7.0579791e+04 </wgt>
<wgt id='1885'> +7.0340989e+04 </wgt>
<wgt id='1886'> +7.5727485e+04 </wgt>
<wgt id='1887'> +7.4853910e+04 </wgt>
<wgt id='1888'> +6.4409907e+04 </wgt>
<wgt id='1889'> +7.0284288e+04 </wgt>
</rwgt>
</event>
<event npLO=" -1 " npNLO=" 0 ">
 6      0 +7.4519530e+04 3.39862530e+01 7.55820760e-03 1.18549260e-01
        2 -1    0    0  501    0 +0.0000000000e+00 +0.0000000000e+00 +3.2406788653e+03 3.2406788653e+03 0.0000000000e+00 0.0000e+00 -1.0000e+00
       21 -1    0    0  502  501 +0.0000000000e+00 +0.0000000000e+00 -1.3880202598e+00 1.3880202598e+00 0.0000000000e+00 0.0000e+00 1.0000e+00
       24  2    1    2    0    0 +3.0783996948e+01 +1.3891230253e+01 +1.6111585011e+03 1.6135842943e+03 8.1743123904e+01 0.0000e+00 0.0000e+00
      -15  1    3    3    0    0 +4.0245091701e+01 +3.3408333317e+01 +6.2500622572e+02 6.2719352999e+02 1.7770000000e+00 0.0000e+00 1.0000e+00
       16  1    3    3    0    0 -9.4610947529e+00 -1.9517103064e+01 +9.8615227536e+02 9.8639076426e+02 0.0000000000e+00 0.0000e+00 -1.0000e+00
        1  1    1    2  502    0 -3.0783996948e+01 -1.3891230253e+01 +1.6281323440e+03 1.6284825913e+03 0.0000000000e+00 0.0000e+00 -1.0000e+00
#aMCatNLO 2  0  0  2  1 0.75386316E+02 0.00000000E+00 -9  5  0 0.00000000E+00 0.00000000E+00 0.00000000E+00 0.00000000E+00 0.00000000E+00
<rwgt>
<wgt id='1001'> +7.4519530e+04 </wgt>
<wgt id='1002'> +6.7439031e+04 </wgt>
<wgt id='1003'> +8.3312318e+04 </wgt>
<wgt id='1004'> +7.7341036e+04 </wgt>
<wgt id='1005'> +6.9992452e+04 </wgt>
<wgt id='1006'> +8.6466743e+04 </wgt>
<wgt id='1007'> +7.0053667e+04 </wgt>
<wgt id='1008'> +6.3397495e+04 </wgt>
<wgt id='1009'> +7.8319516e+04 </wgt>
<wgt id='1010'> +7.4519530e+04 </wgt>
<wgt id='1011'> +7.4802226e+04 </wgt>
<wgt id='1012'> +7.4873807e+04 </wgt>
<wgt id='1013'> +7.4212983e+04 </wgt>
<wgt id='1014'> +7.4215391e+04 </wgt>
<wgt id='1015'> +7.4678916e+04 </wgt>
<wgt id='1016'> +7.3877104e+04 </wgt>
<wgt id='1017'> +7.4257415e+04 </wgt>
<wgt id='1018'> +7.4175853e+04 </wgt>
<wgt id='1019'> +7.4500932e+04 </wgt>
<wgt id='1020'> +7.4673539e+04 </wgt>
<wgt id='1021'> +7.4349693e+04 </wgt>
<wgt id='1022'> +7.4273592e+04 </wgt>
<wgt id='1023'> +7.4436948e+04 </wgt>
<wgt id='1024'> +7.4227906e+04 </wgt>
<wgt id='1025'> +7.4336602e+04 </wgt>
<wgt id='1026'> +7.4203835e+04 </wgt>
<wgt id='1027'> +7.4314309e+04 </wgt>
<wgt id='1028'> +7.4399497e+04 </wgt>
<wgt id='1029'> +7.4261332e+04 </wgt>
<wgt id='1030'> +7.3876992e+04 </wgt>
<wgt id='1031'> +7.4744325e+04 </wgt>
<wgt id='1032'> +7.4751263e+04 </wgt>
<wgt id='1033'> +7.4301364e+04 </wgt>
<wgt id='1034'> +7.4969953e+04 </wgt>
<wgt id='1035'> +7.4644748e+04 </wgt>
<wgt id='1036'> +7.4690396e+04 </wgt>
<wgt id='1037'> +7.4337413e+04 </wgt>
<wgt id='1038'> +7.4556704e+04 </wgt>
<wgt id='1039'> +7.5002067e+04 </wgt>
<wgt id='1040'> +7.4488020e+04 </wgt>
<wgt id='1041'> +7.5440104e+04 </wgt>
<wgt id='1042'> +7.4601388e+04 </wgt>
<wgt id='1043'> +7.4083387e+04 </wgt>
<wgt id='1044'> +7.4587180e+04 </wgt>
<wgt id='1045'> +7.4636448e+04 </wgt>
<wgt id='1046'> +7.4030265e+04 </wgt>
<wgt id='1047'> +7.4790758e+04 </wgt>
<wgt id='1048'> +7.3929609e+04 </wgt>
<wgt id='1049'> +7.3951257e+04 </wgt>
<wgt id='1050'> +7.4689302e+04 </wgt>
<wgt id='1051'> +7.4239432e+04 </wgt>
<wgt id='1052'> +7.3968134e+04 </wgt>
<wgt id='1053'> +7.4414738e+04 </wgt>
<wgt id='1054'> +7.4821334e+04 </wgt>
<wgt id='1055'> +7.4886422e+04 </wgt>
<wgt id='1056'> +7.4488571e+04 </wgt>
<wgt id='1057'> +7.4734784e+04 </wgt>
<wgt id='1058'> +7.4733448e+04 </wgt>
<wgt id='1059'> +7.4963210e+04 </wgt>
<wgt id='1060'> +7.4166665e+04 </wgt>
<wgt id='1061'> +7.4573660e+04 </wgt>
<wgt id='1062'> +7.4245429e+04 </wgt>
<wgt id='1063'> +7.4137345e+04 </wgt>
<wgt id='1064'> +7.5011649e+04 </wgt>
<wgt id='1065'> +7.4484228e+04 </wgt>
<wgt id='1066'> +7.4738546e+04 </wgt>
<wgt id='1067'> +7.4304126e+04 </wgt>
<wgt id='1068'> +7.4837380e+04 </wgt>
<wgt id='1069'> +7.4516912e+04 </wgt>
<wgt id='1070'> +7.4398469e+04 </wgt>
<wgt id='1071'> +7.4908344e+04 </wgt>
<wgt id='1072'> +7.4688234e+04 </wgt>
<wgt id='1073'> +7.4663919e+04 </wgt>
<wgt id='1074'> +7.4923891e+04 </wgt>
<wgt id='1075'> +7.4620918e+04 </wgt>
<wgt id='1076'> +7.4621955e+04 </wgt>
<wgt id='1077'> +7.4761727e+04 </wgt>
<wgt id='1078'> +7.4751485e+04 </wgt>
<wgt id='1079'> +7.4592018e+04 </wgt>
<wgt id='1080'> +7.4368317e+04 </wgt>
<wgt id='1081'> +7.4546414e+04 </wgt>
<wgt id='1082'> +7.4202548e+04 </wgt>
<wgt id='1083'> +7.4416864e+04 </wgt>
<wgt id='1084'> +7.4538503e+04 </wgt>
<wgt id='1085'> +7.4346038e+04 </wgt>
<wgt id='1086'> +7.4539789e+04 </wgt>
<wgt id='1087'> +7.4489067e+04 </wgt>
<wgt id='1088'> +7.4538429e+04 </wgt>
<wgt id='1089'> +7.4463028e+04 </wgt>
<wgt id='1090'> +7.4738754e+04 </wgt>
<wgt id='1091'> +7.4779316e+04 </wgt>
<wgt id='1092'> +7.4428539e+04 </wgt>
<wgt id='1093'> +7.4467968e+04 </wgt>
<wgt id='1094'> +7.4336910e+04 </wgt>
<wgt id='1095'> +7.4502681e+04 </wgt>
<wgt id='1096'> +7.4450143e+04 </wgt>
<wgt id='1097'> +7.4430284e+04 </wgt>
<wgt id='1098'> +7.4528343e+04 </wgt>
<wgt id='1099'> +7.4470068e+04 </wgt>
<wgt id='1100'> +7.4610340e+04 </wgt>
<wgt id='1101'> +7.4464958e+04 </wgt>
<wgt id='1102'> +7.4577069e+04 </wgt>
<wgt id='1103'> +7.4402486e+04 </wgt>
<wgt id='1104'> +7.4600928e+04 </wgt>
<wgt id='1105'> +7.4571586e+04 </wgt>
<wgt id='1106'> +7.4538470e+04 </wgt>
<wgt id='1107'> +7.4517738e+04 </wgt>
<wgt id='1108'> +7.4509534e+04 </wgt>
<wgt id='1109'> +7.4456393e+04 </wgt>
<wgt id='1110'> +7.4519529e+04 </wgt>
<wgt id='1111'> +7.4031760e+04 </wgt>
<wgt id='1112'> +7.5228828e+04 </wgt>
<wgt id='1113'> +7.4519529e+04 </wgt>
<wgt id='1114'> +7.5397212e+04 </wgt>
<wgt id='1115'> +7.6634968e+04 </wgt>
<wgt id='1116'> +7.3263043e+04 </wgt>
<wgt id='1117'> +7.3140377e+04 </wgt>
<wgt id='1118'> +7.5413417e+04 </wgt>
<wgt id='1119'> +7.4439020e+04 </wgt>
<wgt id='1120'> +7.2162858e+04 </wgt>
<wgt id='1121'> +7.7789753e+04 </wgt>
<wgt id='1122'> +7.2507391e+04 </wgt>
<wgt id='1123'> +7.4664109e+04 </wgt>
<wgt id='1124'> +7.3569630e+04 </wgt>
<wgt id='1125'> +7.1690136e+04 </wgt>
<wgt id='1126'> +7.5677246e+04 </wgt>
<wgt id='1127'> +7.6116058e+04 </wgt>
<wgt id='1128'> +7.4956774e+04 </wgt>
<wgt id='1129'> +7.2867767e+04 </wgt>
<wgt id='1130'> +7.0600216e+04 </wgt>
<wgt id='1131'> +7.4353599e+04 </wgt>
<wgt id='1132'> +7.3781996e+04 </wgt>
<wgt id='1133'> +7.3789082e+04 </wgt>
<wgt id='1134'> +8.0654300e+04 </wgt>
<wgt id='1135'> +7.9804722e+04 </wgt>
<wgt id='1136'> +7.5188817e+04 </wgt>
<wgt id='1137'> +7.3154632e+04 </wgt>
<wgt id='1138'> +7.8774762e+04 </wgt>
<wgt id='1139'> +7.7465439e+04 </wgt>
<wgt id='1140'> +7.3478871e+04 </wgt>
<wgt id='1141'> +7.4666457e+04 </wgt>
<wgt id='1142'> +7.0969886e+04 </wgt>
<wgt id='1143'> +7.2504387e+04 </wgt>
<wgt id='1144'> +7.6295923e+04 </wgt>
<wgt id='1145'> +7.0999038e+04 </wgt>
<wgt id='1146'> +7.6633736e+04 </wgt>
<wgt id='1147'> +7.5299718e+04 </wgt>
<wgt id='1148'> +7.1765494e+04 </wgt>
<wgt id='1149'> +7.5328892e+04 </wgt>
<wgt id='1150'> +7.1861479e+04 </wgt>
<wgt id='1151'> +7.0594812e+04 </wgt>
<wgt id='1152'> +6.8904131e+04 </wgt>
<wgt id='1153'> +7.5828971e+04 </wgt>
<wgt id='1154'> +7.3970676e+04 </wgt>
<wgt id='1155'> +7.4762424e+04 </wgt>
<wgt id='1156'> +7.4390923e+04 </wgt>
<wgt id='1157'> +7.1864755e+04 </wgt>
<wgt id='1158'> +7.3841887e+04 </wgt>
<wgt id='1159'> +7.4466539e+04 </wgt>
<wgt id='1160'> +7.9249809e+04 </wgt>
<wgt id='1161'> +7.4839612e+04 </wgt>
<wgt id='1162'> +7.4000860e+04 </wgt>
<wgt id='1163'> +7.3727384e+04 </wgt>
<wgt id='1164'> +7.8233973e+04 </wgt>
<wgt id='1165'> +7.5212836e+04 </wgt>
<wgt id='1166'> +7.4473574e+04 </wgt>
<wgt id='1167'> +7.9922319e+04 </wgt>
<wgt id='1168'> +7.6262740e+04 </wgt>
<wgt id='1169'> +6.9806667e+04 </wgt>
<wgt id='1170'> +7.4237097e+04 </wgt>
<wgt id='1171'> +7.8095190e+04 </wgt>
<wgt id='1172'> +7.1230196e+04 </wgt>
<wgt id='1173'> +7.7945131e+04 </wgt>
<wgt id='1174'> +7.6805650e+04 </wgt>
<wgt id='1175'> +7.4215115e+04 </wgt>
<wgt id='1176'> +7.2595185e+04 </wgt>
<wgt id='1177'> +7.5601928e+04 </wgt>
<wgt id='1178'> +7.7795377e+04 </wgt>
<wgt id='1179'> +7.3088117e+04 </wgt>
<wgt id='1180'> +7.9276670e+04 </wgt>
<wgt id='1181'> +7.6482039e+04 </wgt>
<wgt id='1182'> +7.4410277e+04 </wgt>
<wgt id='1183'> +7.7482448e+04 </wgt>
<wgt id='1184'> +7.4006145e+04 </wgt>
<wgt id='1185'> +7.1706146e+04 </wgt>
<wgt id='1186'> +7.5450602e+04 </wgt>
<wgt id='1187'> +7.4889783e+04 </wgt>
<wgt id='1188'> +7.1239793e+04 </wgt>
<wgt id='1189'> +7.9115304e+04 </wgt>
<wgt id='1190'> +7.4524540e+04 </wgt>
<wgt id='1191'> +7.6306369e+04 </wgt>
<wgt id='1192'> +7.8762229e+04 </wgt>
<wgt id='1193'> +7.0929663e+04 </wgt>
<wgt id='1194'> +7.5219730e+04 </wgt>
<wgt id='1195'> +7.2867767e+04 </wgt>
<wgt id='1196'> +7.2011904e+04 </wgt>
<wgt id='1197'> +7.4623235e+04 </wgt>
<wgt id='1198'> +7.6109865e+04 </wgt>
<wgt id='1199'> +6.6030759e+04 </wgt>
<wgt id='1200'> +7.5446979e+04 </wgt>
<wgt id='1201'> +6.8923846e+04 </wgt>
<wgt id='1202'> +7.0227573e+04 </wgt>
<wgt id='1203'> +7.1278883e+04 </wgt>
<wgt id='1204'> +7.3446458e+04 </wgt>
<wgt id='1205'> +7.5751785e+04 </wgt>
<wgt id='1206'> +7.3831391e+04 </wgt>
<wgt id='1207'> +7.6443237e+04 </wgt>
<wgt id='1208'> +7.6341534e+04 </wgt>
<wgt id='1209'> +7.5753783e+04 </wgt>
<wgt id='1210'> +7.0200057e+04 </wgt>
<wgt id='1211'> +7.5570507e+04 </wgt>
<wgt id='1212'> +7.7691987e+04 </wgt>
<wgt id='1213'> +7.5559788e+04 </wgt>
<wgt id='1214'> +7.4480985e+04 </wgt>
<wgt id='1215'> +7.0272641e+04 </wgt>
<wgt id='1216'> +7.0709491e+04 </wgt>
<wgt id='1217'> +7.1876448e+04 </wgt>
<wgt id='1218'> +7.2912567e+04 </wgt>
<wgt id='1219'> +7.3860438e+04 </wgt>
<wgt id='1220'> +7.4572221e+04 </wgt>
<wgt id='1221'> +7.5961555e+04 </wgt>
<wgt id='1222'> +7.6301595e+04 </wgt>
<wgt id='1223'> +7.5051895e+04 </wgt>
<wgt id='1224'> +7.4814083e+04 </wgt>
<wgt id='1225'> +7.5490686e+04 </wgt>
<wgt id='1226'> +7.4700122e+04 </wgt>
<wgt id='1227'> +7.4677487e+04 </wgt>
<wgt id='1228'> +7.4825598e+04 </wgt>
<wgt id='1229'> +7.5211974e+04 </wgt>
<wgt id='1230'> +7.4901479e+04 </wgt>
<wgt id='1231'> +7.4917266e+04 </wgt>
<wgt id='1232'> +7.4896218e+04 </wgt>
<wgt id='1233'> +7.5152309e+04 </wgt>
<wgt id='1234'> +7.5107540e+04 </wgt>
<wgt id='1235'> +7.4722818e+04 </wgt>
<wgt id='1236'> +7.5057363e+04 </wgt>
<wgt id='1237'> +7.5280380e+04 </wgt>
<wgt id='1238'> +7.4970787e+04 </wgt>
<wgt id='1239'> +7.5031015e+04 </wgt>
<wgt id='1240'> +7.4979254e+04 </wgt>
<wgt id='1241'> +7.4820374e+04 </wgt>
<wgt id='1242'> +7.4822747e+04 </wgt>
<wgt id='1243'> +7.4788706e+04 </wgt>
<wgt id='1244'> +7.5094852e+04 </wgt>
<wgt id='1245'> +7.5079042e+04 </wgt>
<wgt id='1246'> +7.5297045e+04 </wgt>
<wgt id='1247'> +7.5017617e+04 </wgt>
<wgt id='1248'> +7.4883628e+04 </wgt>
<wgt id='1249'> +7.5067260e+04 </wgt>
<wgt id='1250'> +7.4986424e+04 </wgt>
<wgt id='1251'> +7.5417138e+04 </wgt>
<wgt id='1252'> +7.5603569e+04 </wgt>
<wgt id='1253'> +7.4153139e+04 </wgt>
<wgt id='1254'> +7.4712312e+04 </wgt>
<wgt id='1255'> +7.5207328e+04 </wgt>
<wgt id='1256'> +7.5110412e+04 </wgt>
<wgt id='1257'> +7.5029859e+04 </wgt>
<wgt id='1258'> +7.5182879e+04 </wgt>
<wgt id='1259'> +7.4877467e+04 </wgt>
<wgt id='1260'> +7.5023314e+04 </wgt>
<wgt id='1261'> +7.4901004e+04 </wgt>
<wgt id='1262'> +7.4930287e+04 </wgt>
<wgt id='1263'> +7.4711600e+04 </wgt>
<wgt id='1264'> +7.5349425e+04 </wgt>
<wgt id='1265'> +7.5008603e+04 </wgt>
<wgt id='1266'> +7.4930710e+04 </wgt>
<wgt id='1267'> +7.5000274e+04 </wgt>
<wgt id='1268'> +7.5182079e+04 </wgt>
<wgt id='1269'> +7.5009545e+04 </wgt>
<wgt id='1270'> +7.4917075e+04 </wgt>
<wgt id='1271'> +7.4971977e+04 </wgt>
<wgt id='1272'> +7.5005707e+04 </wgt>
<wgt id='1273'> +7.4781088e+04 </wgt>
<wgt id='1274'> +7.5500300e+04 </wgt>
<wgt id='1275'> +7.5072608e+04 </wgt>
<wgt id='1276'> +7.5656062e+04 </wgt>
<wgt id='1277'> +7.5074961e+04 </wgt>
<wgt id='1278'> +7.5083310e+04 </wgt>
<wgt id='1279'> +7.5473008e+04 </wgt>
<wgt id='1280'> +7.4405840e+04 </wgt>
<wgt id='1281'> +7.4816342e+04 </wgt>
<wgt id='1282'> +7.6099877e+04 </wgt>
<wgt id='1283'> +7.4833467e+04 </wgt>
<wgt id='1284'> +7.4941982e+04 </wgt>
<wgt id='1285'> +7.5034412e+04 </wgt>
<wgt id='1286'> +7.4881348e+04 </wgt>
<wgt id='1287'> +7.4966567e+04 </wgt>
<wgt id='1288'> +7.4922689e+04 </wgt>
<wgt id='1289'> +7.4786146e+04 </wgt>
<wgt id='1290'> +7.5252868e+04 </wgt>
<wgt id='1291'> +7.5134342e+04 </wgt>
<wgt id='1292'> +7.5111432e+04 </wgt>
<wgt id='1293'> +7.5624296e+04 </wgt>
<wgt id='1294'> +7.5003020e+04 </wgt>
<wgt id='1295'> +7.5182412e+04 </wgt>
<wgt id='1296'> +7.5290377e+04 </wgt>
<wgt id='1297'> +7.5300677e+04 </wgt>
<wgt id='1298'> +7.5031303e+04 </wgt>
<wgt id='1299'> +7.5266687e+04 </wgt>
<wgt id='1300'> +7.4928133e+04 </wgt>
<wgt id='1301'> +7.5144240e+04 </wgt>
<wgt id='1302'> +7.5010664e+04 </wgt>
<wgt id='1303'> +7.4742943e+04 </wgt>
<wgt id='1304'> +7.5161300e+04 </wgt>
<wgt id='1305'> +7.5230174e+04 </wgt>
<wgt id='1306'> +7.5035236e+04 </wgt>
<wgt id='1307'> +7.4805870e+04 </wgt>
<wgt id='1308'> +7.5185875e+04 </wgt>
<wgt id='1309'> +7.5146706e+04 </wgt>
<wgt id='1310'> +7.4933903e+04 </wgt>
<wgt id='1311'> +7.5422816e+04 </wgt>
<wgt id='1312'> +7.4812018e+04 </wgt>
<wgt id='1313'> +7.5123794e+04 </wgt>
<wgt id='1314'> +7.5033115e+04 </wgt>
<wgt id='1315'> +7.5271952e+04 </wgt>
<wgt id='1316'> +7.5331791e+04 </wgt>
<wgt id='1317'> +7.4937221e+04 </wgt>
<wgt id='1318'> +7.5107996e+04 </wgt>
<wgt id='1319'> +7.5160651e+04 </wgt>
<wgt id='1320'> +7.4990917e+04 </wgt>
<wgt id='1321'> +7.5064171e+04 </wgt>
<wgt id='1322'> +7.4987095e+04 </wgt>
<wgt id='1323'> +7.5251163e+04 </wgt>
<wgt id='1324'> +7.4498118e+04 </wgt>
<wgt id='1325'> +7.5868632e+04 </wgt>
<wgt id='1326'> +7.3046505e+04 </wgt>
<wgt id='1327'> +7.6202210e+04 </wgt>
<wgt id='1328'> +7.1561161e+04 </wgt>
<wgt id='1329'> +7.1470700e+04 </wgt>
<wgt id='1330'> +7.2153570e+04 </wgt>
<wgt id='1331'> +7.2224868e+04 </wgt>
<wgt id='1332'> +7.1246760e+04 </wgt>
<wgt id='1333'> +7.1892815e+04 </wgt>
<wgt id='1334'> +6.9445504e+04 </wgt>
<wgt id='1335'> +7.0298426e+04 </wgt>
<wgt id='1336'> +7.3192876e+04 </wgt>
<wgt id='1337'> +7.1472140e+04 </wgt>
<wgt id='1338'> +7.0518725e+04 </wgt>
<wgt id='1339'> +7.0077429e+04 </wgt>
<wgt id='1340'> +7.0936677e+04 </wgt>
<wgt id='1341'> +7.1376553e+04 </wgt>
<wgt id='1342'> +7.2546772e+04 </wgt>
<wgt id='1343'> +7.2018852e+04 </wgt>
<wgt id='1344'> +6.8289031e+04 </wgt>
<wgt id='1345'> +7.1824017e+04 </wgt>
<wgt id='1346'> +7.2924715e+04 </wgt>
<wgt id='1347'> +7.3092441e+04 </wgt>
<wgt id='1348'> +7.1472843e+04 </wgt>
<wgt id='1349'> +7.2749720e+04 </wgt>
<wgt id='1350'> +7.0893362e+04 </wgt>
<wgt id='1351'> +7.2199266e+04 </wgt>
<wgt id='1352'> +7.1758381e+04 </wgt>
<wgt id='1353'> +7.0384106e+04 </wgt>
<wgt id='1354'> +7.2274630e+04 </wgt>
<wgt id='1355'> +7.1622304e+04 </wgt>
<wgt id='1356'> +7.2450328e+04 </wgt>
<wgt id='1357'> +7.1100874e+04 </wgt>
<wgt id='1358'> +7.0155342e+04 </wgt>
<wgt id='1359'> +7.3068002e+04 </wgt>
<wgt id='1360'> +7.1137849e+04 </wgt>
<wgt id='1361'> +7.3552774e+04 </wgt>
<wgt id='1362'> +7.3689744e+04 </wgt>
<wgt id='1363'> +6.9884625e+04 </wgt>
<wgt id='1364'> +7.1823108e+04 </wgt>
<wgt id='1365'> +6.8381037e+04 </wgt>
<wgt id='1366'> +6.9841321e+04 </wgt>
<wgt id='1367'> +7.2143918e+04 </wgt>
<wgt id='1368'> +7.3430815e+04 </wgt>
<wgt id='1369'> +6.9522707e+04 </wgt>
<wgt id='1370'> +7.1725220e+04 </wgt>
<wgt id='1371'> +7.1806569e+04 </wgt>
<wgt id='1372'> +6.8708498e+04 </wgt>
<wgt id='1373'> +7.0886459e+04 </wgt>
<wgt id='1374'> +7.1614969e+04 </wgt>
<wgt id='1375'> +6.8986638e+04 </wgt>
<wgt id='1376'> +7.4059673e+04 </wgt>
<wgt id='1377'> +6.9501009e+04 </wgt>
<wgt id='1378'> +7.1418272e+04 </wgt>
<wgt id='1379'> +7.3143851e+04 </wgt>
<wgt id='1380'> +7.0121639e+04 </wgt>
<wgt id='1381'> +7.4869333e+04 </wgt>
<wgt id='1382'> +7.1054353e+04 </wgt>
<wgt id='1383'> +7.2733831e+04 </wgt>
<wgt id='1384'> +7.0613448e+04 </wgt>
<wgt id='1385'> +6.9293406e+04 </wgt>
<wgt id='1386'> +7.2561983e+04 </wgt>
<wgt id='1387'> +7.1315418e+04 </wgt>
<wgt id='1388'> +7.3093329e+04 </wgt>
<wgt id='1389'> +7.1373277e+04 </wgt>
<wgt id='1390'> +7.0527397e+04 </wgt>
<wgt id='1391'> +7.1655216e+04 </wgt>
<wgt id='1392'> +7.3030223e+04 </wgt>
<wgt id='1393'> +7.0247319e+04 </wgt>
<wgt id='1394'> +6.8381037e+04 </wgt>
<wgt id='1395'> +7.1273976e+04 </wgt>
<wgt id='1396'> +7.2624931e+04 </wgt>
<wgt id='1397'> +7.3162336e+04 </wgt>
<wgt id='1398'> +7.0419743e+04 </wgt>
<wgt id='1399'> +7.2989745e+04 </wgt>
<wgt id='1400'> +7.3550290e+04 </wgt>
<wgt id='1401'> +7.1246775e+04 </wgt>
<wgt id='1402'> +7.3014713e+04 </wgt>
<wgt id='1403'> +7.2550648e+04 </wgt>
<wgt id='1404'> +7.3134589e+04 </wgt>
<wgt id='1405'> +6.9034711e+04 </wgt>
<wgt id='1406'> +7.1266690e+04 </wgt>
<wgt id='1407'> +7.2053147e+04 </wgt>
<wgt id='1408'> +7.2309877e+04 </wgt>
<wgt id='1409'> +6.9346110e+04 </wgt>
<wgt id='1410'> +7.3934703e+04 </wgt>
<wgt id='1411'> +7.2547135e+04 </wgt>
<wgt id='1412'> +7.3609075e+04 </wgt>
<wgt id='1413'> +6.9495252e+04 </wgt>
<wgt id='1414'> +7.3486880e+04 </wgt>
<wgt id='1415'> +7.3047736e+04 </wgt>
<wgt id='1416'> +7.2314364e+04 </wgt>
<wgt id='1417'> +7.2390531e+04 </wgt>
<wgt id='1418'> +6.9394457e+04 </wgt>
<wgt id='1419'> +7.3889192e+04 </wgt>
<wgt id='1420'> +7.1501753e+04 </wgt>
<wgt id='1421'> +7.1090801e+04 </wgt>
<wgt id='1422'> +6.9196498e+04 </wgt>
<wgt id='1423'> +7.1807049e+04 </wgt>
<wgt id='1424'> +7.3059673e+04 </wgt>
<wgt id='1425'> +6.7906341e+04 </wgt>
<wgt id='1426'> +7.2631796e+04 </wgt>
<wgt id='1427'> +7.3740706e+04 </wgt>
<wgt id='1428'> +6.9629455e+04 </wgt>
<wgt id='1429'> +7.1358265e+04 </wgt>
<wgt id='1430'> +7.1561269e+04 </wgt>
<wgt id='1431'> +7.1487700e+04 </wgt>
<wgt id='1432'> +7.1932687e+04 </wgt>
<wgt id='1433'> +7.1612063e+04 </wgt>
<wgt id='1434'> +7.1513967e+04 </wgt>
<wgt id='1435'> +7.1382571e+04 </wgt>
<wgt id='1436'> +7.1544517e+04 </wgt>
<wgt id='1437'> +7.1397516e+04 </wgt>
<wgt id='1438'> +7.1450258e+04 </wgt>
<wgt id='1439'> +7.1271230e+04 </wgt>
<wgt id='1440'> +7.1532880e+04 </wgt>
<wgt id='1441'> +7.1479643e+04 </wgt>
<wgt id='1442'> +7.1590638e+04 </wgt>
<wgt id='1443'> +7.1523820e+04 </wgt>
<wgt id='1444'> +7.1199455e+04 </wgt>
<wgt id='1445'> +7.1369390e+04 </wgt>
<wgt id='1446'> +7.1629251e+04 </wgt>
<wgt id='1447'> +7.1260088e+04 </wgt>
<wgt id='1448'> +7.1580110e+04 </wgt>
<wgt id='1449'> +7.1389495e+04 </wgt>
<wgt id='1450'> +7.0973556e+04 </wgt>
<wgt id='1451'> +7.1669918e+04 </wgt>
<wgt id='1452'> +7.1720113e+04 </wgt>
<wgt id='1453'> +7.1488391e+04 </wgt>
<wgt id='1454'> +7.1418350e+04 </wgt>
<wgt id='1455'> +7.1899992e+04 </wgt>
<wgt id='1456'> +7.1105492e+04 </wgt>
<wgt id='1457'> +7.1627134e+04 </wgt>
<wgt id='1458'> +7.1965883e+04 </wgt>
<wgt id='1459'> +7.1630131e+04 </wgt>
<wgt id='1460'> +7.1583258e+04 </wgt>
<wgt id='1461'> +7.1680949e+04 </wgt>
<wgt id='1462'> +7.1315158e+04 </wgt>
<wgt id='1463'> +7.1633862e+04 </wgt>
<wgt id='1464'> +7.1687662e+04 </wgt>
<wgt id='1465'> +7.1623822e+04 </wgt>
<wgt id='1466'> +7.1310026e+04 </wgt>
<wgt id='1467'> +7.1916590e+04 </wgt>
<wgt id='1468'> +7.1887966e+04 </wgt>
<wgt id='1469'> +7.1342327e+04 </wgt>
<wgt id='1470'> +7.1160650e+04 </wgt>
<wgt id='1471'> +7.1624023e+04 </wgt>
<wgt id='1472'> +7.1441864e+04 </wgt>
<wgt id='1473'> +7.1514784e+04 </wgt>
<wgt id='1474'> +7.1578776e+04 </wgt>
<wgt id='1475'> +7.1553978e+04 </wgt>
<wgt id='1476'> +7.1655533e+04 </wgt>
<wgt id='1477'> +7.1389272e+04 </wgt>
<wgt id='1478'> +7.1658561e+04 </wgt>
<wgt id='1479'> +7.1388252e+04 </wgt>
<wgt id='1480'> +7.1567087e+04 </wgt>
<wgt id='1481'> +7.1326017e+04 </wgt>
<wgt id='1482'> +7.1358265e+04 </wgt>
<wgt id='1483'> +7.1561269e+04 </wgt>
<wgt id='1484'> +7.5222466e+04 </wgt>
<wgt id='1485'> +7.3812435e+04 </wgt>
<wgt id='1486'> +7.5262666e+04 </wgt>
<wgt id='1487'> +7.3046342e+04 </wgt>
<wgt id='1488'> +7.3637191e+04 </wgt>
<wgt id='1489'> +7.6090378e+04 </wgt>
<wgt id='1490'> +7.3186474e+04 </wgt>
<wgt id='1491'> +7.4812471e+04 </wgt>
<wgt id='1492'> +7.3163356e+04 </wgt>
<wgt id='1493'> +7.6131500e+04 </wgt>
<wgt id='1494'> +7.4548678e+04 </wgt>
<wgt id='1495'> +7.2802047e+04 </wgt>
<wgt id='1496'> +7.5841967e+04 </wgt>
<wgt id='1497'> +7.6116996e+04 </wgt>
<wgt id='1498'> +7.5878520e+04 </wgt>
<wgt id='1499'> +7.6918099e+04 </wgt>
<wgt id='1500'> +7.3524473e+04 </wgt>
<wgt id='1501'> +7.4974782e+04 </wgt>
<wgt id='1502'> +7.5475863e+04 </wgt>
<wgt id='1503'> +7.5020531e+04 </wgt>
<wgt id='1504'> +7.5289264e+04 </wgt>
<wgt id='1505'> +7.6007191e+04 </wgt>
<wgt id='1506'> +7.6076338e+04 </wgt>
<wgt id='1507'> +7.4863187e+04 </wgt>
<wgt id='1508'> +7.2963130e+04 </wgt>
<wgt id='1509'> +7.6288519e+04 </wgt>
<wgt id='1510'> +7.6819720e+04 </wgt>
<wgt id='1511'> +7.5175978e+04 </wgt>
<wgt id='1512'> +7.4709069e+04 </wgt>
<wgt id='1513'> +7.5599610e+04 </wgt>
<wgt id='1514'> +7.5973197e+04 </wgt>
<wgt id='1515'> +7.4137741e+04 </wgt>
<wgt id='1516'> +7.3693550e+04 </wgt>
<wgt id='1517'> +7.5359148e+04 </wgt>
<wgt id='1518'> +7.4448027e+04 </wgt>
<wgt id='1519'> +7.4101564e+04 </wgt>
<wgt id='1520'> +7.6361944e+04 </wgt>
<wgt id='1521'> +7.3457244e+04 </wgt>
<wgt id='1522'> +7.4651244e+04 </wgt>
<wgt id='1523'> +7.6428030e+04 </wgt>
<wgt id='1524'> +7.4573895e+04 </wgt>
<wgt id='1525'> +7.4773260e+04 </wgt>
<wgt id='1526'> +7.5347879e+04 </wgt>
<wgt id='1527'> +7.5480292e+04 </wgt>
<wgt id='1528'> +7.6499683e+04 </wgt>
<wgt id='1529'> +7.5444503e+04 </wgt>
<wgt id='1530'> +7.6198232e+04 </wgt>
<wgt id='1531'> +7.5591225e+04 </wgt>
<wgt id='1532'> +7.1581007e+04 </wgt>
<wgt id='1533'> +7.5249973e+04 </wgt>
<wgt id='1534'> +7.4650674e+04 </wgt>
<wgt id='1535'> +7.4471161e+04 </wgt>
<wgt id='1536'> +7.4128858e+04 </wgt>
<wgt id='1537'> +7.5658814e+04 </wgt>
<wgt id='1538'> +7.6172939e+04 </wgt>
<wgt id='1539'> +7.5640045e+04 </wgt>
<wgt id='1540'> +7.7518349e+04 </wgt>
<wgt id='1541'> +7.6628997e+04 </wgt>
<wgt id='1542'> +7.5914068e+04 </wgt>
<wgt id='1543'> +7.5367382e+04 </wgt>
<wgt id='1544'> +7.7123356e+04 </wgt>
<wgt id='1545'> +7.5286870e+04 </wgt>
<wgt id='1546'> +7.5090506e+04 </wgt>
<wgt id='1547'> +7.6485507e+04 </wgt>
<wgt id='1548'> +7.4418585e+04 </wgt>
<wgt id='1549'> +7.7012228e+04 </wgt>
<wgt id='1550'> +7.6328563e+04 </wgt>
<wgt id='1551'> +7.7061299e+04 </wgt>
<wgt id='1552'> +7.4534161e+04 </wgt>
<wgt id='1553'> +7.7082612e+04 </wgt>
<wgt id='1554'> +7.6526142e+04 </wgt>
<wgt id='1555'> +7.5377894e+04 </wgt>
<wgt id='1556'> +7.5151560e+04 </wgt>
<wgt id='1557'> +7.5217382e+04 </wgt>
<wgt id='1558'> +7.5403694e+04 </wgt>
<wgt id='1559'> +7.5396851e+04 </wgt>
<wgt id='1560'> +7.4636654e+04 </wgt>
<wgt id='1561'> +7.7704437e+04 </wgt>
<wgt id='1562'> +7.4638708e+04 </wgt>
<wgt id='1563'> +7.5420694e+04 </wgt>
<wgt id='1564'> +7.5587435e+04 </wgt>
<wgt id='1565'> +7.2624633e+04 </wgt>
<wgt id='1566'> +7.5780710e+04 </wgt>
<wgt id='1567'> +7.7671587e+04 </wgt>
<wgt id='1568'> +7.3553216e+04 </wgt>
<wgt id='1569'> +7.7203256e+04 </wgt>
<wgt id='1570'> +7.5887356e+04 </wgt>
<wgt id='1571'> +7.5213856e+04 </wgt>
<wgt id='1572'> +7.4524171e+04 </wgt>
<wgt id='1573'> +7.7307588e+04 </wgt>
<wgt id='1574'> +7.5614132e+04 </wgt>
<wgt id='1575'> +7.1596374e+04 </wgt>
<wgt id='1576'> +7.5344117e+04 </wgt>
<wgt id='1577'> +7.3419603e+04 </wgt>
<wgt id='1578'> +7.4733338e+04 </wgt>
<wgt id='1579'> +7.4563067e+04 </wgt>
<wgt id='1580'> +7.6795917e+04 </wgt>
<wgt id='1581'> +7.6260659e+04 </wgt>
<wgt id='1582'> +7.3619494e+04 </wgt>
<wgt id='1583'> +7.4947251e+04 </wgt>
<wgt id='1584'> +7.4732950e+04 </wgt>
<wgt id='1585'> +7.7279808e+04 </wgt>
<wgt id='1586'> +1.0290913e+05 </wgt>
<wgt id='1587'> +7.0887077e+04 </wgt>
<wgt id='1588'> +7.1358265e+04 </wgt>
<wgt id='1589'> +7.1502645e+04 </wgt>
<wgt id='1590'> +7.1220055e+04 </wgt>
<wgt id='1591'> +7.1561269e+04 </wgt>
<wgt id='1592'> +7.1705590e+04 </wgt>
<wgt id='1593'> +7.4928035e+04 </wgt>
<wgt id='1594'> +7.4851595e+04 </wgt>
<wgt id='1595'> +7.4990453e+04 </wgt>
<wgt id='1596'> +7.6716941e+04 </wgt>
<wgt id='1597'> +7.2317533e+04 </wgt>
<wgt id='1598'> +7.4910219e+04 </wgt>
<wgt id='1599'> +7.4715672e+04 </wgt>
<wgt id='1600'> +7.5569660e+04 </wgt>
<wgt id='1601'> +7.4326725e+04 </wgt>
<wgt id='1602'> +7.4999913e+04 </wgt>
<wgt id='1603'> +7.5057508e+04 </wgt>
<wgt id='1604'> +7.4322594e+04 </wgt>
<wgt id='1605'> +7.5692162e+04 </wgt>
<wgt id='1606'> +7.4413767e+04 </wgt>
<wgt id='1607'> +7.4913219e+04 </wgt>
<wgt id='1608'> +7.5418831e+04 </wgt>
<wgt id='1609'> +7.3821389e+04 </wgt>
<wgt id='1610'> +7.4808739e+04 </wgt>
<wgt id='1611'> +7.5010501e+04 </wgt>
<wgt id='1612'> +7.5092174e+04 </wgt>
<wgt id='1613'> +7.4654811e+04 </wgt>
<wgt id='1614'> +7.4756586e+04 </wgt>
<wgt id='1615'> +7.5235895e+04 </wgt>
<wgt id='1616'> +7.4866443e+04 </wgt>
<wgt id='1617'> +7.4407899e+04 </wgt>
<wgt id='1618'> +7.4578444e+04 </wgt>
<wgt id='1619'> +7.5827001e+04 </wgt>
<wgt id='1620'> +7.4799039e+04 </wgt>
<wgt id='1621'> +7.5056800e+04 </wgt>
<wgt id='1622'> +7.6380448e+04 </wgt>
<wgt id='1623'> +7.3793268e+04 </wgt>
<wgt id='1624'> +7.5193352e+04 </wgt>
<wgt id='1625'> +7.3558481e+04 </wgt>
<wgt id='1626'> +7.3868516e+04 </wgt>
<wgt id='1627'> +7.6166381e+04 </wgt>
<wgt id='1628'> +7.3417793e+04 </wgt>
<wgt id='1629'> +7.6295129e+04 </wgt>
<wgt id='1630'> +7.4202184e+04 </wgt>
<wgt id='1631'> +7.5456472e+04 </wgt>
<wgt id='1632'> +7.4737141e+04 </wgt>
<wgt id='1633'> +7.5375127e+04 </wgt>
<wgt id='1634'> +7.5713701e+04 </wgt>
<wgt id='1635'> +7.4349904e+04 </wgt>
<wgt id='1636'> +7.5191343e+04 </wgt>
<wgt id='1637'> +7.5605156e+04 </wgt>
<wgt id='1638'> +7.4644452e+04 </wgt>
<wgt id='1639'> +7.5025642e+04 </wgt>
<wgt id='1640'> +7.6008695e+04 </wgt>
<wgt id='1641'> +7.4082487e+04 </wgt>
<wgt id='1642'> +7.5785268e+04 </wgt>
<wgt id='1643'> +7.4106569e+04 </wgt>
<wgt id='1644'> +7.5776122e+04 </wgt>
<wgt id='1645'> +7.4318844e+04 </wgt>
<wgt id='1646'> +7.4418667e+04 </wgt>
<wgt id='1647'> +7.6144205e+04 </wgt>
<wgt id='1648'> +7.4866101e+04 </wgt>
<wgt id='1649'> +7.5096042e+04 </wgt>
<wgt id='1650'> +7.6464511e+04 </wgt>
<wgt id='1651'> +7.3445280e+04 </wgt>
<wgt id='1652'> +7.6343595e+04 </wgt>
<wgt id='1653'> +7.5657051e+04 </wgt>
<wgt id='1654'> +7.4173153e+04 </wgt>
<wgt id='1655'> +7.3405499e+04 </wgt>
<wgt id='1656'> +7.6620358e+04 </wgt>
<wgt id='1657'> +7.6485437e+04 </wgt>
<wgt id='1658'> +7.6414172e+04 </wgt>
<wgt id='1659'> +7.8135139e+04 </wgt>
<wgt id='1660'> +7.5197900e+04 </wgt>
<wgt id='1661'> +7.7012693e+04 </wgt>
<wgt id='1662'> +7.5860551e+04 </wgt>
<wgt id='1663'> +7.7301361e+04 </wgt>
<wgt id='1664'> +7.5782090e+04 </wgt>
<wgt id='1665'> +7.7199237e+04 </wgt>
<wgt id='1666'> +7.6212337e+04 </wgt>
<wgt id='1667'> +7.6331178e+04 </wgt>
<wgt id='1668'> +7.6747502e+04 </wgt>
<wgt id='1669'> +7.6904017e+04 </wgt>
<wgt id='1670'> +7.6136673e+04 </wgt>
<wgt id='1671'> +7.5952845e+04 </wgt>
<wgt id='1672'> +7.7485187e+04 </wgt>
<wgt id='1673'> +7.6195871e+04 </wgt>
<wgt id='1674'> +7.6934159e+04 </wgt>
<wgt id='1675'> +7.6860382e+04 </wgt>
<wgt id='1676'> +7.6317020e+04 </wgt>
<wgt id='1677'> +7.6960782e+04 </wgt>
<wgt id='1678'> +7.6129453e+04 </wgt>
<wgt id='1679'> +7.5923026e+04 </wgt>
<wgt id='1680'> +7.8179729e+04 </wgt>
<wgt id='1681'> +7.6629910e+04 </wgt>
<wgt id='1682'> +7.6312676e+04 </wgt>
<wgt id='1683'> +7.6330460e+04 </wgt>
<wgt id='1684'> +7.7000079e+04 </wgt>
<wgt id='1685'> +7.8280809e+04 </wgt>
<wgt id='1686'> +7.5128103e+04 </wgt>
<wgt id='1687'> +7.6249136e+04 </wgt>
<wgt id='1688'> +7.7224062e+04 </wgt>
<wgt id='1689'> +7.5396598e+04 </wgt>
<wgt id='1690'> +7.8250956e+04 </wgt>
<wgt id='1691'> +7.5882148e+04 </wgt>
<wgt id='1692'> +7.7317934e+04 </wgt>
<wgt id='1693'> +7.6318749e+04 </wgt>
<wgt id='1694'> +7.7650346e+04 </wgt>
<wgt id='1695'> +7.7327296e+04 </wgt>
<wgt id='1696'> +7.6998164e+04 </wgt>
<wgt id='1697'> +7.7366305e+04 </wgt>
<wgt id='1698'> +7.5768791e+04 </wgt>
<wgt id='1699'> +7.7375370e+04 </wgt>
<wgt id='1700'> +7.5282727e+04 </wgt>
<wgt id='1701'> +7.6761354e+04 </wgt>
<wgt id='1702'> +7.6766547e+04 </wgt>
<wgt id='1703'> +7.5777314e+04 </wgt>
<wgt id='1704'> +7.7534103e+04 </wgt>
<wgt id='1705'> +7.6213212e+04 </wgt>
<wgt id='1706'> +7.7107350e+04 </wgt>
<wgt id='1707'> +7.5370150e+04 </wgt>
<wgt id='1708'> +7.7350008e+04 </wgt>
<wgt id='1709'> +7.5644432e+04 </wgt>
<wgt id='1710'> +7.8007015e+04 </wgt>
<wgt id='1711'> +7.7310284e+04 </wgt>
<wgt id='1712'> +7.6017282e+04 </wgt>
<wgt id='1713'> +7.8094174e+04 </wgt>
<wgt id='1714'> +7.5067425e+04 </wgt>
<wgt id='1715'> +7.4609727e+04 </wgt>
<wgt id='1716'> +7.6147535e+04 </wgt>
<wgt id='1717'> +7.3644611e+04 </wgt>
<wgt id='1718'> +7.3696819e+04 </wgt>
<wgt id='1719'> +7.3577667e+04 </wgt>
<wgt id='1720'> +7.3644824e+04 </wgt>
<wgt id='1721'> +7.3644416e+04 </wgt>
<wgt id='1722'> +7.3693916e+04 </wgt>
<wgt id='1723'> +7.3563830e+04 </wgt>
<wgt id='1724'> +7.3791380e+04 </wgt>
<wgt id='1725'> +7.3525231e+04 </wgt>
<wgt id='1726'> +7.3653689e+04 </wgt>
<wgt id='1727'> +7.3635252e+04 </wgt>
<wgt id='1728'> +7.3979155e+04 </wgt>
<wgt id='1729'> +7.3323083e+04 </wgt>
<wgt id='1730'> +7.3361024e+04 </wgt>
<wgt id='1731'> +7.3842141e+04 </wgt>
<wgt id='1732'> +7.4139798e+04 </wgt>
<wgt id='1733'> +7.4139798e+04 </wgt>
<wgt id='1734'> +7.2777200e+04 </wgt>
<wgt id='1735'> +7.4237236e+04 </wgt>
<wgt id='1736'> +7.3750877e+04 </wgt>
<wgt id='1737'> +7.3494132e+04 </wgt>
<wgt id='1738'> +7.3409362e+04 </wgt>
<wgt id='1739'> +7.4021938e+04 </wgt>
<wgt id='1740'> +7.3610230e+04 </wgt>
<wgt id='1741'> +7.3727523e+04 </wgt>
<wgt id='1742'> +7.3663547e+04 </wgt>
<wgt id='1743'> +7.3623510e+04 </wgt>
<wgt id='1744'> +7.3570610e+04 </wgt>
<wgt id='1745'> +7.3843846e+04 </wgt>
<wgt id='1746'> +7.3204113e+04 </wgt>
<wgt id='1747'> +7.3886557e+04 </wgt>
<wgt id='1748'> +7.4005395e+04 </wgt>
<wgt id='1749'> +7.2506472e+04 </wgt>
<wgt id='1750'> +7.3745271e+04 </wgt>
<wgt id='1751'> +7.3530377e+04 </wgt>
<wgt id='1752'> +7.3852327e+04 </wgt>
<wgt id='1753'> +7.3359692e+04 </wgt>
<wgt id='1754'> +7.3855075e+04 </wgt>
<wgt id='1755'> +7.3524055e+04 </wgt>
<wgt id='1756'> +7.3437765e+04 </wgt>
<wgt id='1757'> +7.4186696e+04 </wgt>
<wgt id='1758'> +7.3047853e+04 </wgt>
<wgt id='1759'> +7.4016599e+04 </wgt>
<wgt id='1760'> +7.3245555e+04 </wgt>
<wgt id='1761'> +7.4071475e+04 </wgt>
<wgt id='1762'> +7.3420184e+04 </wgt>
<wgt id='1763'> +7.4329631e+04 </wgt>
<wgt id='1764'> +7.3566545e+04 </wgt>
<wgt id='1765'> +7.4036631e+04 </wgt>
<wgt id='1766'> +7.3698035e+04 </wgt>
<wgt id='1767'> +7.3646968e+04 </wgt>
<wgt id='1768'> +7.3720318e+04 </wgt>
<wgt id='1769'> +7.3604473e+04 </wgt>
<wgt id='1770'> +7.3322441e+04 </wgt>
<wgt id='1771'> +7.4129011e+04 </wgt>
<wgt id='1772'> +7.3710143e+04 </wgt>
<wgt id='1773'> +7.3808506e+04 </wgt>
<wgt id='1774'> +7.3763191e+04 </wgt>
<wgt id='1775'> +7.3561550e+04 </wgt>
<wgt id='1776'> +7.3598117e+04 </wgt>
<wgt id='1777'> +7.3695889e+04 </wgt>
<wgt id='1778'> +7.3716688e+04 </wgt>
<wgt id='1779'> +7.3799388e+04 </wgt>
<wgt id='1780'> +7.3569052e+04 </wgt>
<wgt id='1781'> +7.3917519e+04 </wgt>
<wgt id='1782'> +7.3644611e+04 </wgt>
<wgt id='1783'> +7.3687687e+04 </wgt>
<wgt id='1784'> +7.3877966e+04 </wgt>
<wgt id='1785'> +7.3792303e+04 </wgt>
<wgt id='1786'> +7.3938686e+04 </wgt>
<wgt id='1787'> +7.3919066e+04 </wgt>
<wgt id='1788'> +7.3761756e+04 </wgt>
<wgt id='1789'> +7.3873667e+04 </wgt>
<wgt id='1790'> +7.2669135e+04 </wgt>
<wgt id='1791'> +7.3801895e+04 </wgt>
<wgt id='1792'> +7.3739454e+04 </wgt>
<wgt id='1793'> +7.4261636e+04 </wgt>
<wgt id='1794'> +7.4125911e+04 </wgt>
<wgt id='1795'> +7.4151721e+04 </wgt>
<wgt id='1796'> +7.3975043e+04 </wgt>
<wgt id='1797'> +7.4326823e+04 </wgt>
<wgt id='1798'> +7.4073364e+04 </wgt>
<wgt id='1799'> +7.4872656e+04 </wgt>
<wgt id='1800'> +7.3969947e+04 </wgt>
<wgt id='1801'> +7.3897605e+04 </wgt>
<wgt id='1802'> +7.3915037e+04 </wgt>
<wgt id='1803'> +7.3976864e+04 </wgt>
<wgt id='1804'> +7.2943351e+04 </wgt>
<wgt id='1805'> +7.3857431e+04 </wgt>
<wgt id='1806'> +7.3847168e+04 </wgt>
<wgt id='1807'> +7.3771026e+04 </wgt>
<wgt id='1808'> +7.3527484e+04 </wgt>
<wgt id='1809'> +7.3979820e+04 </wgt>
<wgt id='1810'> +7.4150087e+04 </wgt>
<wgt id='1811'> +7.3661038e+04 </wgt>
<wgt id='1812'> +7.3847145e+04 </wgt>
<wgt id='1813'> +7.3950105e+04 </wgt>
<wgt id='1814'> +7.3923827e+04 </wgt>
<wgt id='1815'> +7.3772987e+04 </wgt>
<wgt id='1816'> +7.3926263e+04 </wgt>
<wgt id='1817'> +7.3818705e+04 </wgt>
<wgt id='1818'> +7.3881009e+04 </wgt>
<wgt id='1819'> +7.3925635e+04 </wgt>
<wgt id='1820'> +7.3844884e+04 </wgt>
<wgt id='1821'> +7.3862266e+04 </wgt>
<wgt id='1822'> +7.3867567e+04 </wgt>
<wgt id='1823'> +7.3744261e+04 </wgt>
<wgt id='1824'> +7.3841466e+04 </wgt>
<wgt id='1825'> +7.4055494e+04 </wgt>
<wgt id='1826'> +7.4276222e+04 </wgt>
<wgt id='1827'> +8.2895716e+04 </wgt>
<wgt id='1828'> +8.2900955e+04 </wgt>
<wgt id='1829'> +8.2905382e+04 </wgt>
<wgt id='1830'> +8.3165329e+04 </wgt>
<wgt id='1831'> +8.2640390e+04 </wgt>
<wgt id='1832'> +8.2618962e+04 </wgt>
<wgt id='1833'> +8.3187100e+04 </wgt>
<wgt id='1834'> +8.2575290e+04 </wgt>
<wgt id='1835'> +8.3220846e+04 </wgt>
<wgt id='1836'> +8.3521453e+04 </wgt>
<wgt id='1837'> +8.2268548e+04 </wgt>
<wgt id='1838'> +8.3504656e+04 </wgt>
<wgt id='1839'> +8.2300706e+04 </wgt>
<wgt id='1840'> +8.3724429e+04 </wgt>
<wgt id='1841'> +8.2103461e+04 </wgt>
<wgt id='1842'> +8.3327432e+04 </wgt>
<wgt id='1843'> +8.2950264e+04 </wgt>
<wgt id='1844'> +8.2299928e+04 </wgt>
<wgt id='1845'> +8.3485343e+04 </wgt>
<wgt id='1846'> +8.2666964e+04 </wgt>
<wgt id='1847'> +8.3120590e+04 </wgt>
<wgt id='1848'> +8.2133488e+04 </wgt>
<wgt id='1849'> +8.3580090e+04 </wgt>
<wgt id='1850'> +8.2790812e+04 </wgt>
<wgt id='1851'> +8.2533722e+04 </wgt>
<wgt id='1852'> +8.2584534e+04 </wgt>
<wgt id='1853'> +8.2714933e+04 </wgt>
<wgt id='1854'> +8.2806076e+04 </wgt>
<wgt id='1855'> +8.3079480e+04 </wgt>
<wgt id='1856'> +7.9082786e+04 </wgt>
<wgt id='1857'> +7.9074967e+04 </wgt>
<wgt id='1858'> +7.9089829e+04 </wgt>
<wgt id='1859'> +7.9062653e+04 </wgt>
<wgt id='1860'> +7.9080981e+04 </wgt>
<wgt id='1861'> +7.8941421e+04 </wgt>
<wgt id='1862'> +7.9039930e+04 </wgt>
<wgt id='1863'> +7.8860179e+04 </wgt>
<wgt id='1864'> +7.8805880e+04 </wgt>
<wgt id='1865'> +7.8997934e+04 </wgt>
<wgt id='1866'> +7.9137760e+04 </wgt>
<wgt id='1867'> +7.9255105e+04 </wgt>
<wgt id='1868'> +7.9402275e+04 </wgt>
<wgt id='1869'> +7.9245063e+04 </wgt>
<wgt id='1870'> +7.8847756e+04 </wgt>
<wgt id='1871'> +7.8965447e+04 </wgt>
<wgt id='1872'> +7.9089275e+04 </wgt>
<wgt id='1873'> +7.9045027e+04 </wgt>
<wgt id='1874'> +7.8878378e+04 </wgt>
<wgt id='1875'> +7.9071080e+04 </wgt>
<wgt id='1876'> +7.8669159e+04 </wgt>
<wgt id='1877'> +7.9093713e+04 </wgt>
<wgt id='1878'> +7.8953214e+04 </wgt>
<wgt id='1879'> +7.8948382e+04 </wgt>
<wgt id='1880'> +7.9329389e+04 </wgt>
<wgt id='1881'> +7.9235360e+04 </wgt>
<wgt id='1882'> +7.9171336e+04 </wgt>
<wgt id='1883'> +7.8741364e+04 </wgt>
<wgt id='1884'> +7.9075942e+04 </wgt>
<wgt id='1885'> +7.8341658e+04 </wgt>
<wgt id='1886'> +1.0340707e+05 </wgt>
<wgt id='1887'> +1.1607185e+05 </wgt>
<wgt id='1888'> +1.1511541e+05 </wgt>
<wgt id='1889'> +1.3417829e+05 </wgt>
</rwgt>
</event>
<event npLO=" -1 " npNLO=" 0 ">
 5      1 +7.4519530e+04 1.48399560e+01 7.55820760e-03 1.20435120e-01
       -2 -1    0    0    0  501 +0.0000000000e+00 +0.0000000000e+00 +5.1101315146e+01 5.1101315146e+01 0.0000000000e+00 0.0000e+00 1.0000e+00
        1 -1    0    0  501    0 +0.0000000000e+00 +0.0000000000e+00 -3.1126807020e+01 3.1126807020e+01 0.0000000000e+00 0.0000e+00 -1.0000e+00
      -24  2    1    2    0    0 +0.0000000000e+00 +0.0000000000e+00 +1.9974508126e+01 8.2228122165e+01 7.9765174732e+01 0.0000e+00 0.0000e+00
       15  1    3    3    0    0 +2.0008142432e+01 +3.3874964580e+01 +3.3750281302e+00 3.9527048116e+01 1.7770000000e+00 0.0000e+00 -1.0000e+00
      -16  1    3    3    0    0 -2.0008142432e+01 -3.3874964580e+01 +1.6599479996e+01 4.2701074050e+01 0.0000000000e+00 0.0000e+00 1.0000e+00
#aMCatNLO 1  0  0  1  2 0.24493401E+01 0.00000000E+00 -9  5  0 0.00000000E+00 0.00000000E+00 0.00000000E+00 0.00000000E+00 0.00000000E+00
<rwgt>
<wgt id='1001'> +7.4519530e+04 </wgt>
<wgt id='1002'> +7.3098289e+04 </wgt>
<wgt id='1003'> +7.6290620e+04 </wgt>
<wgt id='1004'> +8.1923739e+04 </wgt>
<wgt id='1005'> +8.0467446e+04 </wgt>
<wgt id='1006'> +8.3738489e+04 </wgt>
<wgt id='1007'> +6.6036239e+04 </wgt>
<wgt id='1008'> +6.4696247e+04 </wgt>
<wgt id='1009'> +6.7706104e+04 </wgt>
<wgt id='1010'> +7.4519530e+04 </wgt>
<wgt id='1011'> +7.4423536e+04 </wgt>
<wgt id='1012'> +7.4495935e+04 </wgt>
<wgt id='1013'> +7.4181997e+04 </wgt>
<wgt id='1014'> +7.4839289e+04 </wgt>
<wgt id='1015'> +7.4295114e+04 </wgt>
<wgt id='1016'> +7.4556769e+04 </wgt>
<wgt id='1017'> +7.4693163e+04 </wgt>
<wgt id='1018'> +7.4388817e+04 </wgt>
<wgt id='1019'> +7.4858612e+04 </wgt>
<wgt id='1020'> +7.4183919e+04 </wgt>
<wgt id='1021'> +7.4354609e+04 </wgt>
<wgt id='1022'> +7.4761777e+04 </wgt>
<wgt id='1023'> +7.4637025e+04 </wgt>
<wgt id='1024'> +7.4704352e+04 </wgt>
<wgt id='1025'> +7.5193071e+04 </wgt>
<wgt id='1026'> +7.4152687e+04 </wgt>
<wgt id='1027'> +7.4377031e+04 </wgt>
<wgt id='1028'> +7.4135621e+04 </wgt>
<wgt id='1029'> +7.4650124e+04 </wgt>
<wgt id='1030'> +7.4882586e+04 </wgt>
<wgt id='1031'> +7.4506703e+04 </wgt>
<wgt id='1032'> +7.4775237e+04 </wgt>
<wgt id='1033'> +7.4133541e+04 </wgt>
<wgt id='1034'> +7.4195834e+04 </wgt>
<wgt id='1035'> +7.4144562e+04 </wgt>
<wgt id='1036'> +7.4336858e+04 </wgt>
<wgt id='1037'> +7.5167984e+04 </wgt>
<wgt id='1038'> +7.4755131e+04 </wgt>
<wgt id='1039'> +7.4405726e+04 </wgt>
<wgt id='1040'> +7.4555651e+04 </wgt>
<wgt id='1041'> +7.4675748e+04 </wgt>
<wgt id='1042'> +7.4316600e+04 </wgt>
<wgt id='1043'> +7.4643818e+04 </wgt>
<wgt id='1044'> +7.4550675e+04 </wgt>
<wgt id='1045'> +7.4481046e+04 </wgt>
<wgt id='1046'> +7.4544870e+04 </wgt>
<wgt id='1047'> +7.4471815e+04 </wgt>
<wgt id='1048'> +7.4735691e+04 </wgt>
<wgt id='1049'> +7.4585515e+04 </wgt>
<wgt id='1050'> +7.4627382e+04 </wgt>
<wgt id='1051'> +7.4680596e+04 </wgt>
<wgt id='1052'> +7.4644102e+04 </wgt>
<wgt id='1053'> +7.4498470e+04 </wgt>
<wgt id='1054'> +7.4550317e+04 </wgt>
<wgt id='1055'> +7.4552391e+04 </wgt>
<wgt id='1056'> +7.4572586e+04 </wgt>
<wgt id='1057'> +7.4505574e+04 </wgt>
<wgt id='1058'> +7.4514016e+04 </wgt>
<wgt id='1059'> +7.4533029e+04 </wgt>
<wgt id='1060'> +7.4454734e+04 </wgt>
<wgt id='1061'> +7.4542649e+04 </wgt>
<wgt id='1062'> +7.4461445e+04 </wgt>
<wgt id='1063'> +7.4544637e+04 </wgt>
<wgt id='1064'> +7.4476608e+04 </wgt>
<wgt id='1065'> +7.4597106e+04 </wgt>
<wgt id='1066'> +7.4596616e+04 </wgt>
<wgt id='1067'> +7.4497810e+04 </wgt>
<wgt id='1068'> +7.4448475e+04 </wgt>
<wgt id='1069'> +7.4655214e+04 </wgt>
<wgt id='1070'> +7.4471121e+04 </wgt>
<wgt id='1071'> +7.4470056e+04 </wgt>
<wgt id='1072'> +7.4550028e+04 </wgt>
<wgt id='1073'> +7.4592712e+04 </wgt>
<wgt id='1074'> +7.4617183e+04 </wgt>
<wgt id='1075'> +7.4522773e+04 </wgt>
<wgt id='1076'> +7.4576547e+04 </wgt>
<wgt id='1077'> +7.4566985e+04 </wgt>
<wgt id='1078'> +7.4375245e+04 </wgt>
<wgt id='1079'> +7.4556565e+04 </wgt>
<wgt id='1080'> +7.4559208e+04 </wgt>
<wgt id='1081'> +7.4599579e+04 </wgt>
<wgt id='1082'> +7.4560095e+04 </wgt>
<wgt id='1083'> +7.4553231e+04 </wgt>
<wgt id='1084'> +7.4558779e+04 </wgt>
<wgt id='1085'> +7.4505367e+04 </wgt>
<wgt id='1086'> +7.4537346e+04 </wgt>
<wgt id='1087'> +7.4549192e+04 </wgt>
<wgt id='1088'> +7.4538312e+04 </wgt>
<wgt id='1089'> +7.4463874e+04 </wgt>
<wgt id='1090'> +7.4491715e+04 </wgt>
<wgt id='1091'> +7.4499888e+04 </wgt>
<wgt id='1092'> +7.4525238e+04 </wgt>
<wgt id='1093'> +7.4559749e+04 </wgt>
<wgt id='1094'> +7.4510901e+04 </wgt>
<wgt id='1095'> +7.4500225e+04 </wgt>
<wgt id='1096'> +7.4462774e+04 </wgt>
<wgt id='1097'> +7.4544339e+04 </wgt>
<wgt id='1098'> +7.4531045e+04 </wgt>
<wgt id='1099'> +7.4548714e+04 </wgt>
<wgt id='1100'> +7.4494514e+04 </wgt>
<wgt id='1101'> +7.4512420e+04 </wgt>
<wgt id='1102'> +7.4542597e+04 </wgt>
<wgt id='1103'> +7.4522440e+04 </wgt>
<wgt id='1104'> +7.4501518e+04 </wgt>
<wgt id='1105'> +7.4516137e+04 </wgt>
<wgt id='1106'> +7.4523461e+04 </wgt>
<wgt id='1107'> +7.4541301e+04 </wgt>
<wgt id='1108'> +7.4506602e+04 </wgt>
<wgt id='1109'> +7.4535115e+04 </wgt>
<wgt id='1110'> +7.4519528e+04 </wgt>
<wgt id='1111'> +7.4315625e+04 </wgt>
<wgt id='1112'> +7.4726474e+04 </wgt>
<wgt id='1113'> +7.4519528e+04 </wgt>
<wgt id='1114'> +7.8752247e+04 </wgt>
<wgt id='1115'> +7.4591902e+04 </wgt>
<wgt id='1116'> +7.1354868e+04 </wgt>
<wgt id='1117'> +7.3357984e+04 </wgt>
<wgt id='1118'> +7.4837756e+04 </wgt>
<wgt id='1119'> +7.8429514e+04 </wgt>
<wgt id='1120'> +7.5323341e+04 </wgt>
<wgt id='1121'> +7.0947822e+04 </wgt>
<wgt id='1122'> +7.2450899e+04 </wgt>
<wgt id='1123'> +7.4996433e+04 </wgt>
<wgt id='1124'> +7.4837253e+04 </wgt>
<wgt id='1125'> +7.2118602e+04 </wgt>
<wgt id='1126'> +7.4013160e+04 </wgt>
<wgt id='1127'> +7.3475156e+04 </wgt>
<wgt id='1128'> +7.5205341e+04 </wgt>
<wgt id='1129'> +7.5662418e+04 </wgt>
<wgt id='1130'> +7.6789247e+04 </wgt>
<wgt id='1131'> +7.3634466e+04 </wgt>
<wgt id='1132'> +7.5106073e+04 </wgt>
<wgt id='1133'> +7.2186475e+04 </wgt>
<wgt id='1134'> +7.2407768e+04 </wgt>
<wgt id='1135'> +7.5803762e+04 </wgt>
<wgt id='1136'> +7.6259069e+04 </wgt>
<wgt id='1137'> +7.2585152e+04 </wgt>
<wgt id='1138'> +7.2387620e+04 </wgt>
<wgt id='1139'> +7.4694388e+04 </wgt>
<wgt id='1140'> +7.7468817e+04 </wgt>
<wgt id='1141'> +7.4026107e+04 </wgt>
<wgt id='1142'> +7.4943939e+04 </wgt>
<wgt id='1143'> +7.6790456e+04 </wgt>
<wgt id='1144'> +7.5857981e+04 </wgt>
<wgt id='1145'> +7.4000518e+04 </wgt>
<wgt id='1146'> +7.6242852e+04 </wgt>
<wgt id='1147'> +7.1060548e+04 </wgt>
<wgt id='1148'> +7.5707234e+04 </wgt>
<wgt id='1149'> +7.3683980e+04 </wgt>
<wgt id='1150'> +7.4639389e+04 </wgt>
<wgt id='1151'> +7.4278825e+04 </wgt>
<wgt id='1152'> +7.4437326e+04 </wgt>
<wgt id='1153'> +7.4566997e+04 </wgt>
<wgt id='1154'> +7.5157710e+04 </wgt>
<wgt id='1155'> +7.4987551e+04 </wgt>
<wgt id='1156'> +7.6478817e+04 </wgt>
<wgt id='1157'> +7.6397321e+04 </wgt>
<wgt id='1158'> +7.5211520e+04 </wgt>
<wgt id='1159'> +7.6017971e+04 </wgt>
<wgt id='1160'> +7.5010431e+04 </wgt>
<wgt id='1161'> +7.2504577e+04 </wgt>
<wgt id='1162'> +7.6949720e+04 </wgt>
<wgt id='1163'> +7.6642176e+04 </wgt>
<wgt id='1164'> +7.3002041e+04 </wgt>
<wgt id='1165'> +7.3686317e+04 </wgt>
<wgt id='1166'> +7.4637055e+04 </wgt>
<wgt id='1167'> +7.5233594e+04 </wgt>
<wgt id='1168'> +7.3166109e+04 </wgt>
<wgt id='1169'> +7.4825594e+04 </wgt>
<wgt id='1170'> +7.6026105e+04 </wgt>
<wgt id='1171'> +7.3805659e+04 </wgt>
<wgt id='1172'> +7.4971817e+04 </wgt>
<wgt id='1173'> +7.5379454e+04 </wgt>
<wgt id='1174'> +7.5834966e+04 </wgt>
<wgt id='1175'> +7.4090220e+04 </wgt>
<wgt id='1176'> +7.5699536e+04 </wgt>
<wgt id='1177'> +7.1459039e+04 </wgt>
<wgt id='1178'> +7.6014742e+04 </wgt>
<wgt id='1179'> +7.5808808e+04 </wgt>
<wgt id='1180'> +7.5221663e+04 </wgt>
<wgt id='1181'> +7.7122946e+04 </wgt>
<wgt id='1182'> +7.5020056e+04 </wgt>
<wgt id='1183'> +7.3091646e+04 </wgt>
<wgt id='1184'> +7.4084422e+04 </wgt>
<wgt id='1185'> +7.7679659e+04 </wgt>
<wgt id='1186'> +7.1896143e+04 </wgt>
<wgt id='1187'> +7.2644872e+04 </wgt>
<wgt id='1188'> +7.4048469e+04 </wgt>
<wgt id='1189'> +7.5207612e+04 </wgt>
<wgt id='1190'> +7.2125828e+04 </wgt>
<wgt id='1191'> +7.4198531e+04 </wgt>
<wgt id='1192'> +7.4245440e+04 </wgt>
<wgt id='1193'> +7.6264277e+04 </wgt>
<wgt id='1194'> +7.3614474e+04 </wgt>
<wgt id='1195'> +7.5662418e+04 </wgt>
<wgt id='1196'> +7.5366310e+04 </wgt>
<wgt id='1197'> +7.3143807e+04 </wgt>
<wgt id='1198'> +7.3335974e+04 </wgt>
<wgt id='1199'> +7.7168538e+04 </wgt>
<wgt id='1200'> +7.2318839e+04 </wgt>
<wgt id='1201'> +7.7146020e+04 </wgt>
<wgt id='1202'> +7.0568367e+04 </wgt>
<wgt id='1203'> +7.3638823e+04 </wgt>
<wgt id='1204'> +7.3048846e+04 </wgt>
<wgt id='1205'> +7.2221419e+04 </wgt>
<wgt id='1206'> +7.3871766e+04 </wgt>
<wgt id='1207'> +7.6069127e+04 </wgt>
<wgt id='1208'> +7.2606401e+04 </wgt>
<wgt id='1209'> +7.4113459e+04 </wgt>
<wgt id='1210'> +7.5629719e+04 </wgt>
<wgt id='1211'> +7.4400498e+04 </wgt>
<wgt id='1212'> +7.2537158e+04 </wgt>
<wgt id='1213'> +7.4162750e+04 </wgt>
<wgt id='1214'> +7.4497418e+04 </wgt>
<wgt id='1215'> +7.4449258e+04 </wgt>
<wgt id='1216'> +7.4173369e+04 </wgt>
<wgt id='1217'> +7.3884691e+04 </wgt>
<wgt id='1218'> +7.4201946e+04 </wgt>
<wgt id='1219'> +7.4608881e+04 </wgt>
<wgt id='1220'> +7.4630175e+04 </wgt>
<wgt id='1221'> +7.4772680e+04 </wgt>
<wgt id='1222'> +7.4881229e+04 </wgt>
<wgt id='1223'> +7.3616443e+04 </wgt>
<wgt id='1224'> +7.3586942e+04 </wgt>
<wgt id='1225'> +7.3709478e+04 </wgt>
<wgt id='1226'> +7.3611631e+04 </wgt>
<wgt id='1227'> +7.4089380e+04 </wgt>
<wgt id='1228'> +7.3769849e+04 </wgt>
<wgt id='1229'> +7.3330607e+04 </wgt>
<wgt id='1230'> +7.3838972e+04 </wgt>
<wgt id='1231'> +7.3593035e+04 </wgt>
<wgt id='1232'> +7.3829283e+04 </wgt>
<wgt id='1233'> +7.2896558e+04 </wgt>
<wgt id='1234'> +7.3525542e+04 </wgt>
<wgt id='1235'> +7.3984677e+04 </wgt>
<wgt id='1236'> +7.3703570e+04 </wgt>
<wgt id='1237'> +7.3935889e+04 </wgt>
<wgt id='1238'> +7.3202132e+04 </wgt>
<wgt id='1239'> +7.4220296e+04 </wgt>
<wgt id='1240'> +7.3449946e+04 </wgt>
<wgt id='1241'> +7.3921729e+04 </wgt>
<wgt id='1242'> +7.3536562e+04 </wgt>
<wgt id='1243'> +7.3240600e+04 </wgt>
<wgt id='1244'> +7.4165670e+04 </wgt>
<wgt id='1245'> +7.3628393e+04 </wgt>
<wgt id='1246'> +7.3368625e+04 </wgt>
<wgt id='1247'> +7.4085734e+04 </wgt>
<wgt id='1248'> +7.3312359e+04 </wgt>
<wgt id='1249'> +7.3639483e+04 </wgt>
<wgt id='1250'> +7.3607011e+04 </wgt>
<wgt id='1251'> +7.3580456e+04 </wgt>
<wgt id='1252'> +7.4017911e+04 </wgt>
<wgt id='1253'> +7.3566350e+04 </wgt>
<wgt id='1254'> +7.3606088e+04 </wgt>
<wgt id='1255'> +7.3538913e+04 </wgt>
<wgt id='1256'> +7.3684381e+04 </wgt>
<wgt id='1257'> +7.3753727e+04 </wgt>
<wgt id='1258'> +7.3612819e+04 </wgt>
<wgt id='1259'> +7.3563104e+04 </wgt>
<wgt id='1260'> +7.3492923e+04 </wgt>
<wgt id='1261'> +7.3654858e+04 </wgt>
<wgt id='1262'> +7.3492690e+04 </wgt>
<wgt id='1263'> +7.3577102e+04 </wgt>
<wgt id='1264'> +7.3520409e+04 </wgt>
<wgt id='1265'> +7.3572689e+04 </wgt>
<wgt id='1266'> +7.3631814e+04 </wgt>
<wgt id='1267'> +7.3624284e+04 </wgt>
<wgt id='1268'> +7.3754104e+04 </wgt>
<wgt id='1269'> +7.3658760e+04 </wgt>
<wgt id='1270'> +7.3469071e+04 </wgt>
<wgt id='1271'> +7.3502751e+04 </wgt>
<wgt id='1272'> +7.3605644e+04 </wgt>
<wgt id='1273'> +7.3644244e+04 </wgt>
<wgt id='1274'> +7.3646845e+04 </wgt>
<wgt id='1275'> +7.3515968e+04 </wgt>
<wgt id='1276'> +7.3552280e+04 </wgt>
<wgt id='1277'> +7.3426171e+04 </wgt>
<wgt id='1278'> +7.3585212e+04 </wgt>
<wgt id='1279'> +7.3651902e+04 </wgt>
<wgt id='1280'> +7.3624995e+04 </wgt>
<wgt id='1281'> +7.3543599e+04 </wgt>
<wgt id='1282'> +7.3546411e+04 </wgt>
<wgt id='1283'> +7.3701278e+04 </wgt>
<wgt id='1284'> +7.3707415e+04 </wgt>
<wgt id='1285'> +7.3672094e+04 </wgt>
<wgt id='1286'> +7.3612411e+04 </wgt>
<wgt id='1287'> +7.3662759e+04 </wgt>
<wgt id='1288'> +7.3694873e+04 </wgt>
<wgt id='1289'> +7.3599445e+04 </wgt>
<wgt id='1290'> +7.3591548e+04 </wgt>
<wgt id='1291'> +7.3611074e+04 </wgt>
<wgt id='1292'> +7.3558095e+04 </wgt>
<wgt id='1293'> +7.3681166e+04 </wgt>
<wgt id='1294'> +7.3614499e+04 </wgt>
<wgt id='1295'> +7.3488601e+04 </wgt>
<wgt id='1296'> +7.3679849e+04 </wgt>
<wgt id='1297'> +7.3629500e+04 </wgt>
<wgt id='1298'> +7.3694046e+04 </wgt>
<wgt id='1299'> +7.3627115e+04 </wgt>
<wgt id='1300'> +7.3643635e+04 </wgt>
<wgt id='1301'> +7.3619017e+04 </wgt>
<wgt id='1302'> +7.3637775e+04 </wgt>
<wgt id='1303'> +7.3613992e+04 </wgt>
<wgt id='1304'> +7.3647406e+04 </wgt>
<wgt id='1305'> +7.3587130e+04 </wgt>
<wgt id='1306'> +7.3615611e+04 </wgt>
<wgt id='1307'> +7.3617174e+04 </wgt>
<wgt id='1308'> +7.3674240e+04 </wgt>
<wgt id='1309'> +7.3610749e+04 </wgt>
<wgt id='1310'> +7.3651681e+04 </wgt>
<wgt id='1311'> +7.3601517e+04 </wgt>
<wgt id='1312'> +7.3623741e+04 </wgt>
<wgt id='1313'> +7.3593017e+04 </wgt>
<wgt id='1314'> +7.3648601e+04 </wgt>
<wgt id='1315'> +7.3637222e+04 </wgt>
<wgt id='1316'> +7.3614996e+04 </wgt>
<wgt id='1317'> +7.3584926e+04 </wgt>
<wgt id='1318'> +7.3612831e+04 </wgt>
<wgt id='1319'> +7.3633232e+04 </wgt>
<wgt id='1320'> +7.3639872e+04 </wgt>
<wgt id='1321'> +7.3604247e+04 </wgt>
<wgt id='1322'> +7.3608810e+04 </wgt>
<wgt id='1323'> +7.3624057e+04 </wgt>
<wgt id='1324'> +7.3495055e+04 </wgt>
<wgt id='1325'> +7.3905467e+04 </wgt>
<wgt id='1326'> +7.1383912e+04 </wgt>
<wgt id='1327'> +6.8398928e+04 </wgt>
<wgt id='1328'> +7.4533096e+04 </wgt>
<wgt id='1329'> +7.4538207e+04 </wgt>
<wgt id='1330'> +7.5142922e+04 </wgt>
<wgt id='1331'> +7.4505088e+04 </wgt>
<wgt id='1332'> +7.5537990e+04 </wgt>
<wgt id='1333'> +7.5272117e+04 </wgt>
<wgt id='1334'> +7.3997140e+04 </wgt>
<wgt id='1335'> +7.3091193e+04 </wgt>
<wgt id='1336'> +7.5144641e+04 </wgt>
<wgt id='1337'> +7.4557041e+04 </wgt>
<wgt id='1338'> +7.4674195e+04 </wgt>
<wgt id='1339'> +7.4480165e+04 </wgt>
<wgt id='1340'> +7.2954476e+04 </wgt>
<wgt id='1341'> +7.3325746e+04 </wgt>
<wgt id='1342'> +7.5020540e+04 </wgt>
<wgt id='1343'> +7.5213748e+04 </wgt>
<wgt id='1344'> +7.5210525e+04 </wgt>
<wgt id='1345'> +7.4794682e+04 </wgt>
<wgt id='1346'> +7.3292516e+04 </wgt>
<wgt id='1347'> +7.5843435e+04 </wgt>
<wgt id='1348'> +7.3950932e+04 </wgt>
<wgt id='1349'> +7.4518340e+04 </wgt>
<wgt id='1350'> +7.4381543e+04 </wgt>
<wgt id='1351'> +7.4921369e+04 </wgt>
<wgt id='1352'> +7.4433533e+04 </wgt>
<wgt id='1353'> +7.6983227e+04 </wgt>
<wgt id='1354'> +7.4692511e+04 </wgt>
<wgt id='1355'> +7.4137339e+04 </wgt>
<wgt id='1356'> +7.3883890e+04 </wgt>
<wgt id='1357'> +7.4124301e+04 </wgt>
<wgt id='1358'> +7.5163417e+04 </wgt>
<wgt id='1359'> +7.4113618e+04 </wgt>
<wgt id='1360'> +7.5945247e+04 </wgt>
<wgt id='1361'> +7.6597206e+04 </wgt>
<wgt id='1362'> +7.5427246e+04 </wgt>
<wgt id='1363'> +7.4781386e+04 </wgt>
<wgt id='1364'> +7.4720881e+04 </wgt>
<wgt id='1365'> +7.4507667e+04 </wgt>
<wgt id='1366'> +7.4530966e+04 </wgt>
<wgt id='1367'> +7.5593583e+04 </wgt>
<wgt id='1368'> +7.4532848e+04 </wgt>
<wgt id='1369'> +7.4953500e+04 </wgt>
<wgt id='1370'> +7.2868113e+04 </wgt>
<wgt id='1371'> +7.3853896e+04 </wgt>
<wgt id='1372'> +7.5857843e+04 </wgt>
<wgt id='1373'> +7.3644560e+04 </wgt>
<wgt id='1374'> +7.4585517e+04 </wgt>
<wgt id='1375'> +7.4600486e+04 </wgt>
<wgt id='1376'> +7.3212340e+04 </wgt>
<wgt id='1377'> +7.4401311e+04 </wgt>
<wgt id='1378'> +7.3545052e+04 </wgt>
<wgt id='1379'> +7.4985844e+04 </wgt>
<wgt id='1380'> +7.5250318e+04 </wgt>
<wgt id='1381'> +7.4191766e+04 </wgt>
<wgt id='1382'> +7.3922282e+04 </wgt>
<wgt id='1383'> +7.4082898e+04 </wgt>
<wgt id='1384'> +7.5012527e+04 </wgt>
<wgt id='1385'> +7.2851100e+04 </wgt>
<wgt id='1386'> +7.4764339e+04 </wgt>
<wgt id='1387'> +7.3116280e+04 </wgt>
<wgt id='1388'> +7.4039088e+04 </wgt>
<wgt id='1389'> +7.4391327e+04 </wgt>
<wgt id='1390'> +7.1594988e+04 </wgt>
<wgt id='1391'> +7.3516686e+04 </wgt>
<wgt id='1392'> +7.3785834e+04 </wgt>
<wgt id='1393'> +7.3792672e+04 </wgt>
<wgt id='1394'> +7.4507667e+04 </wgt>
<wgt id='1395'> +7.4764248e+04 </wgt>
<wgt id='1396'> +7.5539955e+04 </wgt>
<wgt id='1397'> +7.5250326e+04 </wgt>
<wgt id='1398'> +7.5380759e+04 </wgt>
<wgt id='1399'> +7.4540159e+04 </wgt>
<wgt id='1400'> +7.6359819e+04 </wgt>
<wgt id='1401'> +7.4439174e+04 </wgt>
<wgt id='1402'> +7.5656400e+04 </wgt>
<wgt id='1403'> +7.4861563e+04 </wgt>
<wgt id='1404'> +7.4966551e+04 </wgt>
<wgt id='1405'> +7.3499207e+04 </wgt>
<wgt id='1406'> +7.4652225e+04 </wgt>
<wgt id='1407'> +7.4865899e+04 </wgt>
<wgt id='1408'> +7.5155345e+04 </wgt>
<wgt id='1409'> +7.3884611e+04 </wgt>
<wgt id='1410'> +7.5760502e+04 </wgt>
<wgt id='1411'> +7.3890068e+04 </wgt>
<wgt id='1412'> +7.5275525e+04 </wgt>
<wgt id='1413'> +7.4718632e+04 </wgt>
<wgt id='1414'> +7.3202958e+04 </wgt>
<wgt id='1415'> +7.2708935e+04 </wgt>
<wgt id='1416'> +7.4008352e+04 </wgt>
<wgt id='1417'> +7.5360125e+04 </wgt>
<wgt id='1418'> +7.5747344e+04 </wgt>
<wgt id='1419'> +7.4022062e+04 </wgt>
<wgt id='1420'> +7.3248771e+04 </wgt>
<wgt id='1421'> +7.5258052e+04 </wgt>
<wgt id='1422'> +7.4218414e+04 </wgt>
<wgt id='1423'> +7.3779209e+04 </wgt>
<wgt id='1424'> +7.2635197e+04 </wgt>
<wgt id='1425'> +7.5297561e+04 </wgt>
<wgt id='1426'> +7.4931929e+04 </wgt>
<wgt id='1427'> +7.4905184e+04 </wgt>
<wgt id='1428'> +7.5816463e+04 </wgt>
<wgt id='1429'> +7.4634344e+04 </wgt>
<wgt id='1430'> +7.4195863e+04 </wgt>
<wgt id='1431'> +7.4509374e+04 </wgt>
<wgt id='1432'> +7.4667806e+04 </wgt>
<wgt id='1433'> +7.4466669e+04 </wgt>
<wgt id='1434'> +7.4445222e+04 </wgt>
<wgt id='1435'> +7.4535160e+04 </wgt>
<wgt id='1436'> +7.3900426e+04 </wgt>
<wgt id='1437'> +7.4742529e+04 </wgt>
<wgt id='1438'> +7.4597567e+04 </wgt>
<wgt id='1439'> +7.4136057e+04 </wgt>
<wgt id='1440'> +7.4455734e+04 </wgt>
<wgt id='1441'> +7.4323545e+04 </wgt>
<wgt id='1442'> +7.4457708e+04 </wgt>
<wgt id='1443'> +7.4450186e+04 </wgt>
<wgt id='1444'> +7.4587573e+04 </wgt>
<wgt id='1445'> +7.4491750e+04 </wgt>
<wgt id='1446'> +7.4319186e+04 </wgt>
<wgt id='1447'> +7.4564978e+04 </wgt>
<wgt id='1448'> +7.4593703e+04 </wgt>
<wgt id='1449'> +7.4601485e+04 </wgt>
<wgt id='1450'> +7.4470415e+04 </wgt>
<wgt id='1451'> +7.4587378e+04 </wgt>
<wgt id='1452'> +7.4422991e+04 </wgt>
<wgt id='1453'> +7.4524819e+04 </wgt>
<wgt id='1454'> +7.4669468e+04 </wgt>
<wgt id='1455'> +7.4553409e+04 </wgt>
<wgt id='1456'> +7.4510223e+04 </wgt>
<wgt id='1457'> +7.4530030e+04 </wgt>
<wgt id='1458'> +7.4495592e+04 </wgt>
<wgt id='1459'> +7.4467450e+04 </wgt>
<wgt id='1460'> +7.4501625e+04 </wgt>
<wgt id='1461'> +7.4476471e+04 </wgt>
<wgt id='1462'> +7.4505808e+04 </wgt>
<wgt id='1463'> +7.4504740e+04 </wgt>
<wgt id='1464'> +7.4511971e+04 </wgt>
<wgt id='1465'> +7.4452075e+04 </wgt>
<wgt id='1466'> +7.4510154e+04 </wgt>
<wgt id='1467'> +7.4493148e+04 </wgt>
<wgt id='1468'> +7.4549560e+04 </wgt>
<wgt id='1469'> +7.4525465e+04 </wgt>
<wgt id='1470'> +7.4486537e+04 </wgt>
<wgt id='1471'> +7.4527781e+04 </wgt>
<wgt id='1472'> +7.4510385e+04 </wgt>
<wgt id='1473'> +7.4483713e+04 </wgt>
<wgt id='1474'> +7.4534011e+04 </wgt>
<wgt id='1475'> +7.4505291e+04 </wgt>
<wgt id='1476'> +7.4458949e+04 </wgt>
<wgt id='1477'> +7.4509349e+04 </wgt>
<wgt id='1478'> +7.4511891e+04 </wgt>
<wgt id='1479'> +7.4528759e+04 </wgt>
<wgt id='1480'> +7.4534928e+04 </wgt>
<wgt id='1481'> +7.4515880e+04 </wgt>
<wgt id='1482'> +7.4634344e+04 </wgt>
<wgt id='1483'> +7.4195863e+04 </wgt>
<wgt id='1484'> +7.3604621e+04 </wgt>
<wgt id='1485'> +7.4215109e+04 </wgt>
<wgt id='1486'> +7.3901994e+04 </wgt>
<wgt id='1487'> +7.3053817e+04 </wgt>
<wgt id='1488'> +7.3985502e+04 </wgt>
<wgt id='1489'> +7.3525290e+04 </wgt>
<wgt id='1490'> +7.3590369e+04 </wgt>
<wgt id='1491'> +7.2210249e+04 </wgt>
<wgt id='1492'> +7.3324564e+04 </wgt>
<wgt id='1493'> +7.3978378e+04 </wgt>
<wgt id='1494'> +7.3086895e+04 </wgt>
<wgt id='1495'> +7.2417362e+04 </wgt>
<wgt id='1496'> +7.3369013e+04 </wgt>
<wgt id='1497'> +7.1858171e+04 </wgt>
<wgt id='1498'> +7.5019531e+04 </wgt>
<wgt id='1499'> +7.3429942e+04 </wgt>
<wgt id='1500'> +7.2362426e+04 </wgt>
<wgt id='1501'> +7.3521639e+04 </wgt>
<wgt id='1502'> +7.4044607e+04 </wgt>
<wgt id='1503'> +7.2738043e+04 </wgt>
<wgt id='1504'> +7.3606558e+04 </wgt>
<wgt id='1505'> +7.4137133e+04 </wgt>
<wgt id='1506'> +7.4064704e+04 </wgt>
<wgt id='1507'> +7.3888174e+04 </wgt>
<wgt id='1508'> +7.1996740e+04 </wgt>
<wgt id='1509'> +7.3158327e+04 </wgt>
<wgt id='1510'> +7.2434294e+04 </wgt>
<wgt id='1511'> +7.3060579e+04 </wgt>
<wgt id='1512'> +7.4247347e+04 </wgt>
<wgt id='1513'> +7.2334840e+04 </wgt>
<wgt id='1514'> +7.3476003e+04 </wgt>
<wgt id='1515'> +7.3696218e+04 </wgt>
<wgt id='1516'> +7.3509525e+04 </wgt>
<wgt id='1517'> +7.3887599e+04 </wgt>
<wgt id='1518'> +7.3639206e+04 </wgt>
<wgt id='1519'> +7.3222307e+04 </wgt>
<wgt id='1520'> +7.3909825e+04 </wgt>
<wgt id='1521'> +7.4249629e+04 </wgt>
<wgt id='1522'> +7.3339340e+04 </wgt>
<wgt id='1523'> +7.3120061e+04 </wgt>
<wgt id='1524'> +7.4062884e+04 </wgt>
<wgt id='1525'> +7.4320093e+04 </wgt>
<wgt id='1526'> +7.3025134e+04 </wgt>
<wgt id='1527'> +7.3775320e+04 </wgt>
<wgt id='1528'> +7.3393093e+04 </wgt>
<wgt id='1529'> +7.3544669e+04 </wgt>
<wgt id='1530'> +7.2979660e+04 </wgt>
<wgt id='1531'> +7.3558492e+04 </wgt>
<wgt id='1532'> +7.3572905e+04 </wgt>
<wgt id='1533'> +7.4406458e+04 </wgt>
<wgt id='1534'> +7.3277078e+04 </wgt>
<wgt id='1535'> +7.3403041e+04 </wgt>
<wgt id='1536'> +7.4102591e+04 </wgt>
<wgt id='1537'> +7.3405400e+04 </wgt>
<wgt id='1538'> +7.3385681e+04 </wgt>
<wgt id='1539'> +7.4304311e+04 </wgt>
<wgt id='1540'> +7.3815902e+04 </wgt>
<wgt id='1541'> +7.4630609e+04 </wgt>
<wgt id='1542'> +7.3154304e+04 </wgt>
<wgt id='1543'> +7.3953305e+04 </wgt>
<wgt id='1544'> +7.4218584e+04 </wgt>
<wgt id='1545'> +7.4469558e+04 </wgt>
<wgt id='1546'> +7.3706147e+04 </wgt>
<wgt id='1547'> +7.4051305e+04 </wgt>
<wgt id='1548'> +7.3835698e+04 </wgt>
<wgt id='1549'> +7.3471218e+04 </wgt>
<wgt id='1550'> +7.3598398e+04 </wgt>
<wgt id='1551'> +7.4475305e+04 </wgt>
<wgt id='1552'> +7.3804893e+04 </wgt>
<wgt id='1553'> +7.4085106e+04 </wgt>
<wgt id='1554'> +7.3615521e+04 </wgt>
<wgt id='1555'> +7.3072168e+04 </wgt>
<wgt id='1556'> +7.3077670e+04 </wgt>
<wgt id='1557'> +7.3461922e+04 </wgt>
<wgt id='1558'> +7.4007196e+04 </wgt>
<wgt id='1559'> +7.4562449e+04 </wgt>
<wgt id='1560'> +7.4632830e+04 </wgt>
<wgt id='1561'> +7.3882085e+04 </wgt>
<wgt id='1562'> +7.3793382e+04 </wgt>
<wgt id='1563'> +7.3857862e+04 </wgt>
<wgt id='1564'> +7.4266142e+04 </wgt>
<wgt id='1565'> +7.3722061e+04 </wgt>
<wgt id='1566'> +7.2498972e+04 </wgt>
<wgt id='1567'> +7.3628582e+04 </wgt>
<wgt id='1568'> +7.2949673e+04 </wgt>
<wgt id='1569'> +7.3922767e+04 </wgt>
<wgt id='1570'> +7.3361409e+04 </wgt>
<wgt id='1571'> +7.4271900e+04 </wgt>
<wgt id='1572'> +7.4606567e+04 </wgt>
<wgt id='1573'> +7.3323015e+04 </wgt>
<wgt id='1574'> +7.1793397e+04 </wgt>
<wgt id='1575'> +7.4644330e+04 </wgt>
<wgt id='1576'> +7.4362467e+04 </wgt>
<wgt id='1577'> +7.3231801e+04 </wgt>
<wgt id='1578'> +7.3294127e+04 </wgt>
<wgt id='1579'> +7.2921936e+04 </wgt>
<wgt id='1580'> +7.4191300e+04 </wgt>
<wgt id='1581'> +7.4271890e+04 </wgt>
<wgt id='1582'> +7.5410919e+04 </wgt>
<wgt id='1583'> +7.3406511e+04 </wgt>
<wgt id='1584'> +7.1586652e+04 </wgt>
<wgt id='1585'> +7.2273220e+04 </wgt>
<wgt id='1586'> +6.9786061e+04 </wgt>
<wgt id='1587'> +7.4755915e+04 </wgt>
<wgt id='1588'> +7.4634344e+04 </wgt>
<wgt id='1589'> +7.4498476e+04 </wgt>
<wgt id='1590'> +7.4113786e+04 </wgt>
<wgt id='1591'> +7.4195863e+04 </wgt>
<wgt id='1592'> +7.3741290e+04 </wgt>
<wgt id='1593'> +7.1500450e+04 </wgt>
<wgt id='1594'> +7.1120691e+04 </wgt>
<wgt id='1595'> +7.0143728e+04 </wgt>
<wgt id='1596'> +7.1072848e+04 </wgt>
<wgt id='1597'> +7.1859961e+04 </wgt>
<wgt id='1598'> +6.9725698e+04 </wgt>
<wgt id='1599'> +7.2692677e+04 </wgt>
<wgt id='1600'> +6.9403511e+04 </wgt>
<wgt id='1601'> +7.3248458e+04 </wgt>
<wgt id='1602'> +6.9992921e+04 </wgt>
<wgt id='1603'> +7.2882978e+04 </wgt>
<wgt id='1604'> +7.2062381e+04 </wgt>
<wgt id='1605'> +7.1150673e+04 </wgt>
<wgt id='1606'> +7.1296471e+04 </wgt>
<wgt id='1607'> +7.0964146e+04 </wgt>
<wgt id='1608'> +7.1309002e+04 </wgt>
<wgt id='1609'> +7.0539082e+04 </wgt>
<wgt id='1610'> +7.0510027e+04 </wgt>
<wgt id='1611'> +7.2120917e+04 </wgt>
<wgt id='1612'> +7.2325070e+04 </wgt>
<wgt id='1613'> +6.9308771e+04 </wgt>
<wgt id='1614'> +7.1625092e+04 </wgt>
<wgt id='1615'> +7.1251478e+04 </wgt>
<wgt id='1616'> +7.0762370e+04 </wgt>
<wgt id='1617'> +7.1462785e+04 </wgt>
<wgt id='1618'> +7.1858583e+04 </wgt>
<wgt id='1619'> +7.0663540e+04 </wgt>
<wgt id='1620'> +7.0189111e+04 </wgt>
<wgt id='1621'> +7.2122119e+04 </wgt>
<wgt id='1622'> +7.1073906e+04 </wgt>
<wgt id='1623'> +7.1056465e+04 </wgt>
<wgt id='1624'> +7.1296861e+04 </wgt>
<wgt id='1625'> +7.0580925e+04 </wgt>
<wgt id='1626'> +7.0810546e+04 </wgt>
<wgt id='1627'> +7.1446292e+04 </wgt>
<wgt id='1628'> +7.1591218e+04 </wgt>
<wgt id='1629'> +7.1316924e+04 </wgt>
<wgt id='1630'> +7.2513289e+04 </wgt>
<wgt id='1631'> +6.9844098e+04 </wgt>
<wgt id='1632'> +7.0714284e+04 </wgt>
<wgt id='1633'> +7.1750514e+04 </wgt>
<wgt id='1634'> +7.2501028e+04 </wgt>
<wgt id='1635'> +7.0268315e+04 </wgt>
<wgt id='1636'> +7.0585533e+04 </wgt>
<wgt id='1637'> +7.2362213e+04 </wgt>
<wgt id='1638'> +7.1196408e+04 </wgt>
<wgt id='1639'> +7.1540290e+04 </wgt>
<wgt id='1640'> +7.2190017e+04 </wgt>
<wgt id='1641'> +7.0271132e+04 </wgt>
<wgt id='1642'> +7.1034053e+04 </wgt>
<wgt id='1643'> +7.1397276e+04 </wgt>
<wgt id='1644'> +7.2176952e+04 </wgt>
<wgt id='1645'> +6.9807633e+04 </wgt>
<wgt id='1646'> +7.1908287e+04 </wgt>
<wgt id='1647'> +7.1110441e+04 </wgt>
<wgt id='1648'> +7.1438770e+04 </wgt>
<wgt id='1649'> +7.1395940e+04 </wgt>
<wgt id='1650'> +7.1334056e+04 </wgt>
<wgt id='1651'> +7.1721855e+04 </wgt>
<wgt id='1652'> +7.1617225e+04 </wgt>
<wgt id='1653'> +7.1550999e+04 </wgt>
<wgt id='1654'> +7.1473426e+04 </wgt>
<wgt id='1655'> +7.1477186e+04 </wgt>
<wgt id='1656'> +7.1517478e+04 </wgt>
<wgt id='1657'> +7.0534865e+04 </wgt>
<wgt id='1658'> +7.1131634e+04 </wgt>
<wgt id='1659'> +7.1304264e+04 </wgt>
<wgt id='1660'> +7.1483980e+04 </wgt>
<wgt id='1661'> +7.2330840e+04 </wgt>
<wgt id='1662'> +7.0442926e+04 </wgt>
<wgt id='1663'> +7.0742696e+04 </wgt>
<wgt id='1664'> +7.0892931e+04 </wgt>
<wgt id='1665'> +7.0670935e+04 </wgt>
<wgt id='1666'> +7.1290026e+04 </wgt>
<wgt id='1667'> +7.1091588e+04 </wgt>
<wgt id='1668'> +7.1629892e+04 </wgt>
<wgt id='1669'> +7.1788604e+04 </wgt>
<wgt id='1670'> +7.0656664e+04 </wgt>
<wgt id='1671'> +7.1917715e+04 </wgt>
<wgt id='1672'> +7.0622593e+04 </wgt>
<wgt id='1673'> +7.1576387e+04 </wgt>
<wgt id='1674'> +7.1370939e+04 </wgt>
<wgt id='1675'> +7.1514043e+04 </wgt>
<wgt id='1676'> +7.1621142e+04 </wgt>
<wgt id='1677'> +7.1043828e+04 </wgt>
<wgt id='1678'> +7.1679203e+04 </wgt>
<wgt id='1679'> +7.1207478e+04 </wgt>
<wgt id='1680'> +7.2477389e+04 </wgt>
<wgt id='1681'> +7.1064062e+04 </wgt>
<wgt id='1682'> +7.1236479e+04 </wgt>
<wgt id='1683'> +7.1916710e+04 </wgt>
<wgt id='1684'> +7.1060982e+04 </wgt>
<wgt id='1685'> +7.1854766e+04 </wgt>
<wgt id='1686'> +7.0810663e+04 </wgt>
<wgt id='1687'> +7.2512234e+04 </wgt>
<wgt id='1688'> +6.9909725e+04 </wgt>
<wgt id='1689'> +7.2459387e+04 </wgt>
<wgt id='1690'> +7.0662836e+04 </wgt>
<wgt id='1691'> +7.0915481e+04 </wgt>
<wgt id='1692'> +7.1265821e+04 </wgt>
<wgt id='1693'> +7.3230863e+04 </wgt>
<wgt id='1694'> +7.0310591e+04 </wgt>
<wgt id='1695'> +7.1840372e+04 </wgt>
<wgt id='1696'> +7.0845179e+04 </wgt>
<wgt id='1697'> +7.1837202e+04 </wgt>
<wgt id='1698'> +7.1175697e+04 </wgt>
<wgt id='1699'> +7.0429321e+04 </wgt>
<wgt id='1700'> +7.2654134e+04 </wgt>
<wgt id='1701'> +7.0600571e+04 </wgt>
<wgt id='1702'> +7.2582284e+04 </wgt>
<wgt id='1703'> +7.2089508e+04 </wgt>
<wgt id='1704'> +7.1181409e+04 </wgt>
<wgt id='1705'> +7.0220988e+04 </wgt>
<wgt id='1706'> +7.2299294e+04 </wgt>
<wgt id='1707'> +6.9908668e+04 </wgt>
<wgt id='1708'> +7.2545659e+04 </wgt>
<wgt id='1709'> +7.0816960e+04 </wgt>
<wgt id='1710'> +7.2340281e+04 </wgt>
<wgt id='1711'> +7.0764336e+04 </wgt>
<wgt id='1712'> +7.1367043e+04 </wgt>
<wgt id='1713'> +7.0709197e+04 </wgt>
<wgt id='1714'> +7.1778516e+04 </wgt>
<wgt id='1715'> +6.9597312e+04 </wgt>
<wgt id='1716'> +7.2204511e+04 </wgt>
<wgt id='1717'> +6.8980790e+04 </wgt>
<wgt id='1718'> +6.9089334e+04 </wgt>
<wgt id='1719'> +6.8841615e+04 </wgt>
<wgt id='1720'> +6.8459952e+04 </wgt>
<wgt id='1721'> +6.9458283e+04 </wgt>
<wgt id='1722'> +6.8704701e+04 </wgt>
<wgt id='1723'> +6.9434279e+04 </wgt>
<wgt id='1724'> +6.9224846e+04 </wgt>
<wgt id='1725'> +6.8782584e+04 </wgt>
<wgt id='1726'> +6.8929879e+04 </wgt>
<wgt id='1727'> +6.9033296e+04 </wgt>
<wgt id='1728'> +6.8644833e+04 </wgt>
<wgt id='1729'> +6.9306425e+04 </wgt>
<wgt id='1730'> +6.9066675e+04 </wgt>
<wgt id='1731'> +6.8919958e+04 </wgt>
<wgt id='1732'> +6.9220877e+04 </wgt>
<wgt id='1733'> +6.9220877e+04 </wgt>
<wgt id='1734'> +6.9111837e+04 </wgt>
<wgt id='1735'> +6.8889425e+04 </wgt>
<wgt id='1736'> +6.8886932e+04 </wgt>
<wgt id='1737'> +6.9115724e+04 </wgt>
<wgt id='1738'> +6.9042294e+04 </wgt>
<wgt id='1739'> +6.8854804e+04 </wgt>
<wgt id='1740'> +6.8910129e+04 </wgt>
<wgt id='1741'> +6.9151451e+04 </wgt>
<wgt id='1742'> +6.9110713e+04 </wgt>
<wgt id='1743'> +6.8849933e+04 </wgt>
<wgt id='1744'> +6.8919952e+04 </wgt>
<wgt id='1745'> +6.9145052e+04 </wgt>
<wgt id='1746'> +6.8866600e+04 </wgt>
<wgt id='1747'> +6.9034857e+04 </wgt>
<wgt id='1748'> +6.9185216e+04 </wgt>
<wgt id='1749'> +6.8293921e+04 </wgt>
<wgt id='1750'> +6.9139245e+04 </wgt>
<wgt id='1751'> +6.8811280e+04 </wgt>
<wgt id='1752'> +6.8776754e+04 </wgt>
<wgt id='1753'> +6.9255103e+04 </wgt>
<wgt id='1754'> +6.9091411e+04 </wgt>
<wgt id='1755'> +6.8919300e+04 </wgt>
<wgt id='1756'> +6.8906869e+04 </wgt>
<wgt id='1757'> +6.9201216e+04 </wgt>
<wgt id='1758'> +6.9244086e+04 </wgt>
<wgt id='1759'> +6.8723063e+04 </wgt>
<wgt id='1760'> +6.9563824e+04 </wgt>
<wgt id='1761'> +6.8474525e+04 </wgt>
<wgt id='1762'> +6.8927134e+04 </wgt>
<wgt id='1763'> +6.8703331e+04 </wgt>
<wgt id='1764'> +6.8865666e+04 </wgt>
<wgt id='1765'> +6.9493677e+04 </wgt>
<wgt id='1766'> +6.8885637e+04 </wgt>
<wgt id='1767'> +6.9087822e+04 </wgt>
<wgt id='1768'> +6.8891534e+04 </wgt>
<wgt id='1769'> +6.9018998e+04 </wgt>
<wgt id='1770'> +6.8654816e+04 </wgt>
<wgt id='1771'> +6.8953977e+04 </wgt>
<wgt id='1772'> +6.9078823e+04 </wgt>
<wgt id='1773'> +6.8918575e+04 </wgt>
<wgt id='1774'> +6.8449470e+04 </wgt>
<wgt id='1775'> +6.9329598e+04 </wgt>
<wgt id='1776'> +6.8915019e+04 </wgt>
<wgt id='1777'> +6.9015358e+04 </wgt>
<wgt id='1778'> +6.8461159e+04 </wgt>
<wgt id='1779'> +6.8947071e+04 </wgt>
<wgt id='1780'> +6.9933943e+04 </wgt>
<wgt id='1781'> +6.9003559e+04 </wgt>
<wgt id='1782'> +6.8980790e+04 </wgt>
<wgt id='1783'> +6.9026733e+04 </wgt>
<wgt id='1784'> +7.1112507e+04 </wgt>
<wgt id='1785'> +7.1628402e+04 </wgt>
<wgt id='1786'> +6.9816976e+04 </wgt>
<wgt id='1787'> +7.1169776e+04 </wgt>
<wgt id='1788'> +7.0641412e+04 </wgt>
<wgt id='1789'> +7.1296583e+04 </wgt>
<wgt id='1790'> +7.1678050e+04 </wgt>
<wgt id='1791'> +7.1406712e+04 </wgt>
<wgt id='1792'> +7.0289234e+04 </wgt>
<wgt id='1793'> +7.1585718e+04 </wgt>
<wgt id='1794'> +7.0955059e+04 </wgt>
<wgt id='1795'> +7.1021770e+04 </wgt>
<wgt id='1796'> +7.1250738e+04 </wgt>
<wgt id='1797'> +7.1348183e+04 </wgt>
<wgt id='1798'> +7.1377507e+04 </wgt>
<wgt id='1799'> +7.1542599e+04 </wgt>
<wgt id='1800'> +7.1247092e+04 </wgt>
<wgt id='1801'> +7.2482667e+04 </wgt>
<wgt id='1802'> +7.1641377e+04 </wgt>
<wgt id='1803'> +7.1073470e+04 </wgt>
<wgt id='1804'> +7.1324165e+04 </wgt>
<wgt id='1805'> +7.0945362e+04 </wgt>
<wgt id='1806'> +7.1097600e+04 </wgt>
<wgt id='1807'> +7.1110198e+04 </wgt>
<wgt id='1808'> +7.1153130e+04 </wgt>
<wgt id='1809'> +7.1284541e+04 </wgt>
<wgt id='1810'> +7.1180846e+04 </wgt>
<wgt id='1811'> +7.1149424e+04 </wgt>
<wgt id='1812'> +7.1103266e+04 </wgt>
<wgt id='1813'> +7.1163073e+04 </wgt>
<wgt id='1814'> +7.1430610e+04 </wgt>
<wgt id='1815'> +7.1012065e+04 </wgt>
<wgt id='1816'> +7.1197412e+04 </wgt>
<wgt id='1817'> +7.1216133e+04 </wgt>
<wgt id='1818'> +7.1163313e+04 </wgt>
<wgt id='1819'> +7.1030930e+04 </wgt>
<wgt id='1820'> +7.1135786e+04 </wgt>
<wgt id='1821'> +7.1056845e+04 </wgt>
<wgt id='1822'> +7.1158149e+04 </wgt>
<wgt id='1823'> +7.1216926e+04 </wgt>
<wgt id='1824'> +7.1148348e+04 </wgt>
<wgt id='1825'> +7.1075459e+04 </wgt>
<wgt id='1826'> +7.1533883e+04 </wgt>
<wgt id='1827'> +7.4470852e+04 </wgt>
<wgt id='1828'> +7.4632225e+04 </wgt>
<wgt id='1829'> +7.4325630e+04 </wgt>
<wgt id='1830'> +7.4397764e+04 </wgt>
<wgt id='1831'> +7.4559454e+04 </wgt>
<wgt id='1832'> +7.4578713e+04 </wgt>
<wgt id='1833'> +7.4378496e+04 </wgt>
<wgt id='1834'> +7.4273674e+04 </wgt>
<wgt id='1835'> +7.4670914e+04 </wgt>
<wgt id='1836'> +7.4808426e+04 </wgt>
<wgt id='1837'> +7.4146530e+04 </wgt>
<wgt id='1838'> +7.4738043e+04 </wgt>
<wgt id='1839'> +7.4223975e+04 </wgt>
<wgt id='1840'> +7.4250023e+04 </wgt>
<wgt id='1841'> +7.4708424e+04 </wgt>
<wgt id='1842'> +7.4382225e+04 </wgt>
<wgt id='1843'> +7.4568208e+04 </wgt>
<wgt id='1844'> +7.4565259e+04 </wgt>
<wgt id='1845'> +7.4374149e+04 </wgt>
<wgt id='1846'> +7.4588059e+04 </wgt>
<wgt id='1847'> +7.4372470e+04 </wgt>
<wgt id='1848'> +7.3968819e+04 </wgt>
<wgt id='1849'> +7.4878535e+04 </wgt>
<wgt id='1850'> +7.4650741e+04 </wgt>
<wgt id='1851'> +7.4295138e+04 </wgt>
<wgt id='1852'> +7.4723154e+04 </wgt>
<wgt id='1853'> +7.4067048e+04 </wgt>
<wgt id='1854'> +7.4805875e+04 </wgt>
<wgt id='1855'> +7.4213170e+04 </wgt>
<wgt id='1856'> +7.0138032e+04 </wgt>
<wgt id='1857'> +7.0126799e+04 </wgt>
<wgt id='1858'> +7.0102387e+04 </wgt>
<wgt id='1859'> +7.0160760e+04 </wgt>
<wgt id='1860'> +7.0139808e+04 </wgt>
<wgt id='1861'> +7.0211233e+04 </wgt>
<wgt id='1862'> +6.9811507e+04 </wgt>
<wgt id='1863'> +7.0229196e+04 </wgt>
<wgt id='1864'> +7.0028544e+04 </wgt>
<wgt id='1865'> +7.0051538e+04 </wgt>
<wgt id='1866'> +7.0172936e+04 </wgt>
<wgt id='1867'> +7.0095809e+04 </wgt>
<wgt id='1868'> +7.0113413e+04 </wgt>
<wgt id='1869'> +7.0232358e+04 </wgt>
<wgt id='1870'> +7.0054362e+04 </wgt>
<wgt id='1871'> +7.0229128e+04 </wgt>
<wgt id='1872'> +7.0024812e+04 </wgt>
<wgt id='1873'> +7.0137252e+04 </wgt>
<wgt id='1874'> +7.0129336e+04 </wgt>
<wgt id='1875'> +7.0290317e+04 </wgt>
<wgt id='1876'> +7.0012563e+04 </wgt>
<wgt id='1877'> +6.9970844e+04 </wgt>
<wgt id='1878'> +6.9980150e+04 </wgt>
<wgt id='1879'> +7.0214194e+04 </wgt>
<wgt id='1880'> +7.0288172e+04 </wgt>
<wgt id='1881'> +7.0189595e+04 </wgt>
<wgt id='1882'> +7.0223998e+04 </wgt>
<wgt id='1883'> +7.0171001e+04 </wgt>
<wgt id='1884'> +7.0045719e+04 </wgt>
<wgt id='1885'> +6.9732170e+04 </wgt>
<wgt id='1886'> +8.4873984e+04 </wgt>
<wgt id='1887'> +8.2944820e+04 </wgt>
<wgt id='1888'> +6.8520089e+04 </wgt>
<wgt id='1889'> +7.3144525e+04 </wgt>
</rwgt>
</event>
<event npLO=" -1 " npNLO=" 0 ">
 5      0 +7.4519530e+04 1.88913270e+01 7.55820760e-03 1.20629430e-01
        2 -1    0    0  501    0 +0.0000000000e+00 +0.0000000000e+00 +3.7437692032e+00 3.7437692032e+00 0.0000000000e+00 0.0000e+00 -1.0000e+00
       -1 -1    0    0    0  501 +0.0000000000e+00 +0.0000000000e+00 -3.9684802446e+02 3.9684802446e+02 0.0000000000e+00 0.0000e+00 1.0000e+00
       24  2    1    2    0    0 +0.0000000000e+00 +0.0000000000e+00 -3.9310425526e+02 4.0059179366e+02 7.7089750612e+01 0.0000e+00 0.0000e+00
      -11  1    3    3    0    0 +2.6896815601e+01 +1.4960228919e+01 -3.1713406056e+02 3.1862400962e+02 0.0000000000e+00 0.0000e+00 1.0000e+00
       12  1    3    3    0    0 -2.6896815601e+01 -1.4960228919e+01 -7.5970194699e+01 8.1967784046e+01 0.0000000000e+00 0.0000e+00 -1.0000e+00
#aMCatNLO 1  0  0  2  1 0.18392465E+02 0.00000000E+00 -9  5  0 0.00000000E+00 0.00000000E+00 0.00000000E+00 0.00000000E+00 0.00000000E+00
<rwgt>
<wgt id='1001'> +7.4519530e+04 </wgt>
<wgt id='1002'> +7.3001286e+04 </wgt>
<wgt id='1003'> +7.6410860e+04 </wgt>
<wgt id='1004'> +1.0202004e+05 </wgt>
<wgt id='1005'> +9.8423689e+04 </wgt>
<wgt id='1006'> +1.0650456e+05 </wgt>
<wgt id='1007'> +5.1287938e+04 </wgt>
<wgt id='1008'> +5.1371176e+04 </wgt>
<wgt id='1009'> +5.1180940e+04 </wgt>
<wgt id='1010'> +7.4519530e+04 </wgt>
<wgt id='1011'> +7.4471597e+04 </wgt>
<wgt id='1012'> +7.4554342e+04 </wgt>
<wgt id='1013'> +7.4404726e+04 </wgt>
<wgt id='1014'> +7.5013929e+04 </wgt>
<wgt id='1015'> +7.3401589e+04 </wgt>
<wgt id='1016'> +7.4588395e+04 </wgt>
<wgt id='1017'> +7.4479962e+04 </wgt>
<wgt id='1018'> +7.3717498e+04 </wgt>
<wgt id='1019'> +7.5500919e+04 </wgt>
<wgt id='1020'> +7.4336238e+04 </wgt>
<wgt id='1021'> +7.5014974e+04 </wgt>
<wgt id='1022'> +7.4531764e+04 </wgt>
<wgt id='1023'> +7.5077307e+04 </wgt>
<wgt id='1024'> +7.4060343e+04 </wgt>
<wgt id='1025'> +7.5417677e+04 </wgt>
<wgt id='1026'> +7.4301616e+04 </wgt>
<wgt id='1027'> +7.4172440e+04 </wgt>
<wgt id='1028'> +7.3811512e+04 </wgt>
<wgt id='1029'> +7.4596350e+04 </wgt>
<wgt id='1030'> +7.4087355e+04 </wgt>
<wgt id='1031'> +7.4047070e+04 </wgt>
<wgt id='1032'> +7.4779454e+04 </wgt>
<wgt id='1033'> +7.4285022e+04 </wgt>
<wgt id='1034'> +7.3531231e+04 </wgt>
<wgt id='1035'> +7.4551763e+04 </wgt>
<wgt id='1036'> +7.4519439e+04 </wgt>
<wgt id='1037'> +7.5264763e+04 </wgt>
<wgt id='1038'> +7.3929803e+04 </wgt>
<wgt id='1039'> +7.5881443e+04 </wgt>
<wgt id='1040'> +7.5083917e+04 </wgt>
<wgt id='1041'> +7.5187882e+04 </wgt>
<wgt id='1042'> +7.4114686e+04 </wgt>
<wgt id='1043'> +7.4553836e+04 </wgt>
<wgt id='1044'> +7.4716285e+04 </wgt>
<wgt id='1045'> +7.4370473e+04 </wgt>
<wgt id='1046'> +7.4743011e+04 </wgt>
<wgt id='1047'> +7.4717066e+04 </wgt>
<wgt id='1048'> +7.5018436e+04 </wgt>
<wgt id='1049'> +7.4372527e+04 </wgt>
<wgt id='1050'> +7.4307425e+04 </wgt>
<wgt id='1051'> +7.3873293e+04 </wgt>
<wgt id='1052'> +7.4050894e+04 </wgt>
<wgt id='1053'> +7.4530806e+04 </wgt>
<wgt id='1054'> +7.4592836e+04 </wgt>
<wgt id='1055'> +7.5018336e+04 </wgt>
<wgt id='1056'> +7.4778043e+04 </wgt>
<wgt id='1057'> +7.4651283e+04 </wgt>
<wgt id='1058'> +7.4887067e+04 </wgt>
<wgt id='1059'> +7.4118148e+04 </wgt>
<wgt id='1060'> +7.4758243e+04 </wgt>
<wgt id='1061'> +7.5031449e+04 </wgt>
<wgt id='1062'> +7.4267974e+04 </wgt>
<wgt id='1063'> +7.4471359e+04 </wgt>
<wgt id='1064'> +7.4246095e+04 </wgt>
<wgt id='1065'> +7.4814112e+04 </wgt>
<wgt id='1066'> +7.4753199e+04 </wgt>
<wgt id='1067'> +7.4339563e+04 </wgt>
<wgt id='1068'> +7.4418197e+04 </wgt>
<wgt id='1069'> +7.4315002e+04 </wgt>
<wgt id='1070'> +7.4926153e+04 </wgt>
<wgt id='1071'> +7.4665865e+04 </wgt>
<wgt id='1072'> +7.4513816e+04 </wgt>
<wgt id='1073'> +7.4734059e+04 </wgt>
<wgt id='1074'> +7.4497188e+04 </wgt>
<wgt id='1075'> +7.4286293e+04 </wgt>
<wgt id='1076'> +7.4967959e+04 </wgt>
<wgt id='1077'> +7.4891173e+04 </wgt>
<wgt id='1078'> +7.4309038e+04 </wgt>
<wgt id='1079'> +7.4248770e+04 </wgt>
<wgt id='1080'> +7.4609361e+04 </wgt>
<wgt id='1081'> +7.4453377e+04 </wgt>
<wgt id='1082'> +7.4221805e+04 </wgt>
<wgt id='1083'> +7.4733255e+04 </wgt>
<wgt id='1084'> +7.4446007e+04 </wgt>
<wgt id='1085'> +7.4481152e+04 </wgt>
<wgt id='1086'> +7.4489575e+04 </wgt>
<wgt id='1087'> +7.4500152e+04 </wgt>
<wgt id='1088'> +7.4495369e+04 </wgt>
<wgt id='1089'> +7.4266378e+04 </wgt>
<wgt id='1090'> +7.4451750e+04 </wgt>
<wgt id='1091'> +7.4467121e+04 </wgt>
<wgt id='1092'> +7.4782063e+04 </wgt>
<wgt id='1093'> +7.4480751e+04 </wgt>
<wgt id='1094'> +7.4527725e+04 </wgt>
<wgt id='1095'> +7.4431694e+04 </wgt>
<wgt id='1096'> +7.4566597e+04 </wgt>
<wgt id='1097'> +7.4833363e+04 </wgt>
<wgt id='1098'> +7.4676518e+04 </wgt>
<wgt id='1099'> +7.4426930e+04 </wgt>
<wgt id='1100'> +7.4593955e+04 </wgt>
<wgt id='1101'> +7.4601181e+04 </wgt>
<wgt id='1102'> +7.4359693e+04 </wgt>
<wgt id='1103'> +7.4334307e+04 </wgt>
<wgt id='1104'> +7.4349605e+04 </wgt>
<wgt id='1105'> +7.4450161e+04 </wgt>
<wgt id='1106'> +7.4395069e+04 </wgt>
<wgt id='1107'> +7.4417328e+04 </wgt>
<wgt id='1108'> +7.4532779e+04 </wgt>
<wgt id='1109'> +7.4515764e+04 </wgt>
<wgt id='1110'> +7.4519529e+04 </wgt>
<wgt id='1111'> +7.4979238e+04 </wgt>
<wgt id='1112'> +7.5534764e+04 </wgt>
<wgt id='1113'> +7.4519529e+04 </wgt>
<wgt id='1114'> +8.4867251e+04 </wgt>
<wgt id='1115'> +7.3285380e+04 </wgt>
<wgt id='1116'> +8.1585435e+04 </wgt>
<wgt id='1117'> +7.7950945e+04 </wgt>
<wgt id='1118'> +7.0639334e+04 </wgt>
<wgt id='1119'> +7.3889114e+04 </wgt>
<wgt id='1120'> +7.1493411e+04 </wgt>
<wgt id='1121'> +7.3213482e+04 </wgt>
<wgt id='1122'> +7.0678735e+04 </wgt>
<wgt id='1123'> +7.2814317e+04 </wgt>
<wgt id='1124'> +7.5976181e+04 </wgt>
<wgt id='1125'> +7.0709525e+04 </wgt>
<wgt id='1126'> +7.5420916e+04 </wgt>
<wgt id='1127'> +7.4941019e+04 </wgt>
<wgt id='1128'> +7.2241613e+04 </wgt>
<wgt id='1129'> +7.2908289e+04 </wgt>
<wgt id='1130'> +7.8008373e+04 </wgt>
<wgt id='1131'> +7.3971481e+04 </wgt>
<wgt id='1132'> +7.7422494e+04 </wgt>
<wgt id='1133'> +7.1475368e+04 </wgt>
<wgt id='1134'> +7.6149292e+04 </wgt>
<wgt id='1135'> +7.9412236e+04 </wgt>
<wgt id='1136'> +7.4152423e+04 </wgt>
<wgt id='1137'> +7.3479283e+04 </wgt>
<wgt id='1138'> +7.0396888e+04 </wgt>
<wgt id='1139'> +7.6701134e+04 </wgt>
<wgt id='1140'> +8.6969519e+04 </wgt>
<wgt id='1141'> +7.5136392e+04 </wgt>
<wgt id='1142'> +7.1806697e+04 </wgt>
<wgt id='1143'> +7.3195800e+04 </wgt>
<wgt id='1144'> +8.0298000e+04 </wgt>
<wgt id='1145'> +7.3048223e+04 </wgt>
<wgt id='1146'> +8.1239393e+04 </wgt>
<wgt id='1147'> +7.2817892e+04 </wgt>
<wgt id='1148'> +7.8356081e+04 </wgt>
<wgt id='1149'> +7.3891810e+04 </wgt>
<wgt id='1150'> +7.4661093e+04 </wgt>
<wgt id='1151'> +7.4177701e+04 </wgt>
<wgt id='1152'> +7.2905733e+04 </wgt>
<wgt id='1153'> +7.7068440e+04 </wgt>
<wgt id='1154'> +7.8053217e+04 </wgt>
<wgt id='1155'> +7.5020476e+04 </wgt>
<wgt id='1156'> +8.1447363e+04 </wgt>
<wgt id='1157'> +7.5017760e+04 </wgt>
<wgt id='1158'> +7.2933199e+04 </wgt>
<wgt id='1159'> +7.3833673e+04 </wgt>
<wgt id='1160'> +7.4497325e+04 </wgt>
<wgt id='1161'> +7.7573175e+04 </wgt>
<wgt id='1162'> +7.3556748e+04 </wgt>
<wgt id='1163'> +7.3985696e+04 </wgt>
<wgt id='1164'> +7.3704893e+04 </wgt>
<wgt id='1165'> +7.0081172e+04 </wgt>
<wgt id='1166'> +7.5679862e+04 </wgt>
<wgt id='1167'> +7.6749776e+04 </wgt>
<wgt id='1168'> +8.0643911e+04 </wgt>
<wgt id='1169'> +7.3214036e+04 </wgt>
<wgt id='1170'> +7.4178704e+04 </wgt>
<wgt id='1171'> +7.3970310e+04 </wgt>
<wgt id='1172'> +7.0391316e+04 </wgt>
<wgt id='1173'> +7.6090777e+04 </wgt>
<wgt id='1174'> +7.5194513e+04 </wgt>
<wgt id='1175'> +7.3329316e+04 </wgt>
<wgt id='1176'> +7.8421619e+04 </wgt>
<wgt id='1177'> +7.6845717e+04 </wgt>
<wgt id='1178'> +7.6775127e+04 </wgt>
<wgt id='1179'> +6.7008670e+04 </wgt>
<wgt id='1180'> +7.7733621e+04 </wgt>
<wgt id='1181'> +7.4008065e+04 </wgt>
<wgt id='1182'> +7.0140021e+04 </wgt>
<wgt id='1183'> +7.4065684e+04 </wgt>
<wgt id='1184'> +7.3671125e+04 </wgt>
<wgt id='1185'> +7.1893981e+04 </wgt>
<wgt id='1186'> +6.5478030e+04 </wgt>
<wgt id='1187'> +7.2959875e+04 </wgt>
<wgt id='1188'> +6.8891257e+04 </wgt>
<wgt id='1189'> +8.0149759e+04 </wgt>
<wgt id='1190'> +7.4011995e+04 </wgt>
<wgt id='1191'> +7.2976136e+04 </wgt>
<wgt id='1192'> +7.2141804e+04 </wgt>
<wgt id='1193'> +8.0937420e+04 </wgt>
<wgt id='1194'> +7.7417900e+04 </wgt>
<wgt id='1195'> +7.2908289e+04 </wgt>
<wgt id='1196'> +7.4739472e+04 </wgt>
<wgt id='1197'> +7.3511539e+04 </wgt>
<wgt id='1198'> +7.2314379e+04 </wgt>
<wgt id='1199'> +7.6951525e+04 </wgt>
<wgt id='1200'> +7.1675323e+04 </wgt>
<wgt id='1201'> +7.9416620e+04 </wgt>
<wgt id='1202'> +6.2353689e+04 </wgt>
<wgt id='1203'> +7.1135251e+04 </wgt>
<wgt id='1204'> +7.4067153e+04 </wgt>
<wgt id='1205'> +6.4413040e+04 </wgt>
<wgt id='1206'> +7.1462478e+04 </wgt>
<wgt id='1207'> +7.2008080e+04 </wgt>
<wgt id='1208'> +7.4166506e+04 </wgt>
<wgt id='1209'> +7.4592853e+04 </wgt>
<wgt id='1210'> +7.9017220e+04 </wgt>
<wgt id='1211'> +7.6070495e+04 </wgt>
<wgt id='1212'> +7.4367338e+04 </wgt>
<wgt id='1213'> +7.4088908e+04 </wgt>
<wgt id='1214'> +7.5062919e+04 </wgt>
<wgt id='1215'> +7.3937184e+04 </wgt>
<wgt id='1216'> +7.3750339e+04 </wgt>
<wgt id='1217'> +7.3527069e+04 </wgt>
<wgt id='1218'> +7.4411688e+04 </wgt>
<wgt id='1219'> +7.4017020e+04 </wgt>
<wgt id='1220'> +7.5674542e+04 </wgt>
<wgt id='1221'> +7.5755703e+04 </wgt>
<wgt id='1222'> +7.6688609e+04 </wgt>
<wgt id='1223'> +7.4869008e+04 </wgt>
<wgt id='1224'> +7.4718691e+04 </wgt>
<wgt id='1225'> +7.4949252e+04 </wgt>
<wgt id='1226'> +7.4684421e+04 </wgt>
<wgt id='1227'> +7.5724445e+04 </wgt>
<wgt id='1228'> +7.4536753e+04 </wgt>
<wgt id='1229'> +7.4657787e+04 </wgt>
<wgt id='1230'> +7.4466820e+04 </wgt>
<wgt id='1231'> +7.4232554e+04 </wgt>
<wgt id='1232'> +7.4771232e+04 </wgt>
<wgt id='1233'> +7.4132432e+04 </wgt>
<wgt id='1234'> +7.4954636e+04 </wgt>
<wgt id='1235'> +7.5129461e+04 </wgt>
<wgt id='1236'> +7.4835695e+04 </wgt>
<wgt id='1237'> +7.5450982e+04 </wgt>
<wgt id='1238'> +7.4359032e+04 </wgt>
<wgt id='1239'> +7.4731357e+04 </wgt>
<wgt id='1240'> +7.4773049e+04 </wgt>
<wgt id='1241'> +7.5009576e+04 </wgt>
<wgt id='1242'> +7.4930730e+04 </wgt>
<wgt id='1243'> +7.4932063e+04 </wgt>
<wgt id='1244'> +7.5139168e+04 </wgt>
<wgt id='1245'> +7.4966032e+04 </wgt>
<wgt id='1246'> +7.5314808e+04 </wgt>
<wgt id='1247'> +7.4799270e+04 </wgt>
<wgt id='1248'> +7.4609868e+04 </wgt>
<wgt id='1249'> +7.4590937e+04 </wgt>
<wgt id='1250'> +7.5571598e+04 </wgt>
<wgt id='1251'> +7.4868416e+04 </wgt>
<wgt id='1252'> +7.5123743e+04 </wgt>
<wgt id='1253'> +7.5102547e+04 </wgt>
<wgt id='1254'> +7.5503295e+04 </wgt>
<wgt id='1255'> +7.3978111e+04 </wgt>
<wgt id='1256'> +7.5116182e+04 </wgt>
<wgt id='1257'> +7.4948524e+04 </wgt>
<wgt id='1258'> +7.4144912e+04 </wgt>
<wgt id='1259'> +7.3936905e+04 </wgt>
<wgt id='1260'> +7.4832139e+04 </wgt>
<wgt id='1261'> +7.4119406e+04 </wgt>
<wgt id='1262'> +7.4616263e+04 </wgt>
<wgt id='1263'> +7.4631808e+04 </wgt>
<wgt id='1264'> +7.4190536e+04 </wgt>
<wgt id='1265'> +7.4879220e+04 </wgt>
<wgt id='1266'> +7.5635088e+04 </wgt>
<wgt id='1267'> +7.4368509e+04 </wgt>
<wgt id='1268'> +7.4761773e+04 </wgt>
<wgt id='1269'> +7.4498258e+04 </wgt>
<wgt id='1270'> +7.5097970e+04 </wgt>
<wgt id='1271'> +7.5047978e+04 </wgt>
<wgt id='1272'> +7.4766838e+04 </wgt>
<wgt id='1273'> +7.5349173e+04 </wgt>
<wgt id='1274'> +7.5252809e+04 </wgt>
<wgt id='1275'> +7.4867195e+04 </wgt>
<wgt id='1276'> +7.4859273e+04 </wgt>
<wgt id='1277'> +7.5100722e+04 </wgt>
<wgt id='1278'> +7.4869780e+04 </wgt>
<wgt id='1279'> +7.4749388e+04 </wgt>
<wgt id='1280'> +7.4489665e+04 </wgt>
<wgt id='1281'> +7.4392562e+04 </wgt>
<wgt id='1282'> +7.5082587e+04 </wgt>
<wgt id='1283'> +7.5130731e+04 </wgt>
<wgt id='1284'> +7.5100825e+04 </wgt>
<wgt id='1285'> +7.4942284e+04 </wgt>
<wgt id='1286'> +7.5045624e+04 </wgt>
<wgt id='1287'> +7.4875407e+04 </wgt>
<wgt id='1288'> +7.4858988e+04 </wgt>
<wgt id='1289'> +7.4832068e+04 </wgt>
<wgt id='1290'> +7.5052149e+04 </wgt>
<wgt id='1291'> +7.4944141e+04 </wgt>
<wgt id='1292'> +7.4713669e+04 </wgt>
<wgt id='1293'> +7.5119225e+04 </wgt>
<wgt id='1294'> +7.4899390e+04 </wgt>
<wgt id='1295'> +7.5089106e+04 </wgt>
<wgt id='1296'> +7.4720431e+04 </wgt>
<wgt id='1297'> +7.4700251e+04 </wgt>
<wgt id='1298'> +7.4852433e+04 </wgt>
<wgt id='1299'> +7.4633347e+04 </wgt>
<wgt id='1300'> +7.5007800e+04 </wgt>
<wgt id='1301'> +7.5081799e+04 </wgt>
<wgt id='1302'> +7.4870309e+04 </wgt>
<wgt id='1303'> +7.4695993e+04 </wgt>
<wgt id='1304'> +7.5004576e+04 </wgt>
<wgt id='1305'> +7.5071305e+04 </wgt>
<wgt id='1306'> +7.4900316e+04 </wgt>
<wgt id='1307'> +7.4919094e+04 </wgt>
<wgt id='1308'> +7.4923134e+04 </wgt>
<wgt id='1309'> +7.4786870e+04 </wgt>
<wgt id='1310'> +7.4780952e+04 </wgt>
<wgt id='1311'> +7.4871879e+04 </wgt>
<wgt id='1312'> +7.5242926e+04 </wgt>
<wgt id='1313'> +7.5011388e+04 </wgt>
<wgt id='1314'> +7.4811946e+04 </wgt>
<wgt id='1315'> +7.4803231e+04 </wgt>
<wgt id='1316'> +7.4867072e+04 </wgt>
<wgt id='1317'> +7.5000316e+04 </wgt>
<wgt id='1318'> +7.4848501e+04 </wgt>
<wgt id='1319'> +7.4943014e+04 </wgt>
<wgt id='1320'> +7.4861310e+04 </wgt>
<wgt id='1321'> +7.4946047e+04 </wgt>
<wgt id='1322'> +7.5065138e+04 </wgt>
<wgt id='1323'> +7.5029150e+04 </wgt>
<wgt id='1324'> +7.5069883e+04 </wgt>
<wgt id='1325'> +7.5494957e+04 </wgt>
<wgt id='1326'> +7.0331758e+04 </wgt>
<wgt id='1327'> +6.8852995e+04 </wgt>
<wgt id='1328'> +7.5685420e+04 </wgt>
<wgt id='1329'> +7.5981477e+04 </wgt>
<wgt id='1330'> +7.7239657e+04 </wgt>
<wgt id='1331'> +7.3519244e+04 </wgt>
<wgt id='1332'> +8.0587313e+04 </wgt>
<wgt id='1333'> +8.0312437e+04 </wgt>
<wgt id='1334'> +7.5950748e+04 </wgt>
<wgt id='1335'> +7.7180983e+04 </wgt>
<wgt id='1336'> +7.9334129e+04 </wgt>
<wgt id='1337'> +7.5709902e+04 </wgt>
<wgt id='1338'> +7.1592195e+04 </wgt>
<wgt id='1339'> +7.1628882e+04 </wgt>
<wgt id='1340'> +7.9030917e+04 </wgt>
<wgt id='1341'> +7.5757909e+04 </wgt>
<wgt id='1342'> +7.7576620e+04 </wgt>
<wgt id='1343'> +7.5964573e+04 </wgt>
<wgt id='1344'> +7.8998283e+04 </wgt>
<wgt id='1345'> +7.1263254e+04 </wgt>
<wgt id='1346'> +7.4149751e+04 </wgt>
<wgt id='1347'> +7.4796669e+04 </wgt>
<wgt id='1348'> +7.8069106e+04 </wgt>
<wgt id='1349'> +7.4760059e+04 </wgt>
<wgt id='1350'> +7.6135820e+04 </wgt>
<wgt id='1351'> +7.3960471e+04 </wgt>
<wgt id='1352'> +7.1913521e+04 </wgt>
<wgt id='1353'> +7.6655223e+04 </wgt>
<wgt id='1354'> +7.2602983e+04 </wgt>
<wgt id='1355'> +7.6789728e+04 </wgt>
<wgt id='1356'> +7.7405888e+04 </wgt>
<wgt id='1357'> +7.5194735e+04 </wgt>
<wgt id='1358'> +7.3627871e+04 </wgt>
<wgt id='1359'> +7.4471169e+04 </wgt>
<wgt id='1360'> +7.4685591e+04 </wgt>
<wgt id='1361'> +7.8042037e+04 </wgt>
<wgt id='1362'> +7.1774293e+04 </wgt>
<wgt id='1363'> +7.5138802e+04 </wgt>
<wgt id='1364'> +7.5124816e+04 </wgt>
<wgt id='1365'> +7.5917504e+04 </wgt>
<wgt id='1366'> +7.8395018e+04 </wgt>
<wgt id='1367'> +7.4416779e+04 </wgt>
<wgt id='1368'> +7.3150976e+04 </wgt>
<wgt id='1369'> +7.9860664e+04 </wgt>
<wgt id='1370'> +7.4717487e+04 </wgt>
<wgt id='1371'> +7.7526117e+04 </wgt>
<wgt id='1372'> +7.7364884e+04 </wgt>
<wgt id='1373'> +7.3958217e+04 </wgt>
<wgt id='1374'> +7.6103516e+04 </wgt>
<wgt id='1375'> +7.5045974e+04 </wgt>
<wgt id='1376'> +7.1162152e+04 </wgt>
<wgt id='1377'> +7.5162438e+04 </wgt>
<wgt id='1378'> +7.7241343e+04 </wgt>
<wgt id='1379'> +7.5724683e+04 </wgt>
<wgt id='1380'> +7.8215154e+04 </wgt>
<wgt id='1381'> +7.4452028e+04 </wgt>
<wgt id='1382'> +7.5701607e+04 </wgt>
<wgt id='1383'> +7.3940753e+04 </wgt>
<wgt id='1384'> +7.5098592e+04 </wgt>
<wgt id='1385'> +7.7004180e+04 </wgt>
<wgt id='1386'> +7.6157571e+04 </wgt>
<wgt id='1387'> +7.9101693e+04 </wgt>
<wgt id='1388'> +7.5561314e+04 </wgt>
<wgt id='1389'> +7.6639239e+04 </wgt>
<wgt id='1390'> +7.4549450e+04 </wgt>
<wgt id='1391'> +7.2216457e+04 </wgt>
<wgt id='1392'> +7.2138586e+04 </wgt>
<wgt id='1393'> +7.8746949e+04 </wgt>
<wgt id='1394'> +7.5917504e+04 </wgt>
<wgt id='1395'> +7.4036801e+04 </wgt>
<wgt id='1396'> +7.8096855e+04 </wgt>
<wgt id='1397'> +7.7737598e+04 </wgt>
<wgt id='1398'> +7.3323190e+04 </wgt>
<wgt id='1399'> +7.1550754e+04 </wgt>
<wgt id='1400'> +7.3516171e+04 </wgt>
<wgt id='1401'> +7.2962911e+04 </wgt>
<wgt id='1402'> +7.6962862e+04 </wgt>
<wgt id='1403'> +7.6426775e+04 </wgt>
<wgt id='1404'> +7.4116511e+04 </wgt>
<wgt id='1405'> +8.1282474e+04 </wgt>
<wgt id='1406'> +7.8300202e+04 </wgt>
<wgt id='1407'> +7.3605212e+04 </wgt>
<wgt id='1408'> +7.7823869e+04 </wgt>
<wgt id='1409'> +7.4794995e+04 </wgt>
<wgt id='1410'> +7.6370177e+04 </wgt>
<wgt id='1411'> +7.2573951e+04 </wgt>
<wgt id='1412'> +7.6101018e+04 </wgt>
<wgt id='1413'> +7.6712887e+04 </wgt>
<wgt id='1414'> +7.4741974e+04 </wgt>
<wgt id='1415'> +7.6440629e+04 </wgt>
<wgt id='1416'> +7.5693928e+04 </wgt>
<wgt id='1417'> +7.7799855e+04 </wgt>
<wgt id='1418'> +7.6845533e+04 </wgt>
<wgt id='1419'> +7.5428575e+04 </wgt>
<wgt id='1420'> +7.8088013e+04 </wgt>
<wgt id='1421'> +7.4688519e+04 </wgt>
<wgt id='1422'> +7.4731747e+04 </wgt>
<wgt id='1423'> +7.3899784e+04 </wgt>
<wgt id='1424'> +7.3998903e+04 </wgt>
<wgt id='1425'> +7.8575931e+04 </wgt>
<wgt id='1426'> +7.5843171e+04 </wgt>
<wgt id='1427'> +7.3702825e+04 </wgt>
<wgt id='1428'> +7.7552867e+04 </wgt>
<wgt id='1429'> +7.6753615e+04 </wgt>
<wgt id='1430'> +7.5339752e+04 </wgt>
<wgt id='1431'> +7.5832501e+04 </wgt>
<wgt id='1432'> +7.5587545e+04 </wgt>
<wgt id='1433'> +7.5968966e+04 </wgt>
<wgt id='1434'> +7.5872187e+04 </wgt>
<wgt id='1435'> +7.6169961e+04 </wgt>
<wgt id='1436'> +7.5256936e+04 </wgt>
<wgt id='1437'> +7.5999527e+04 </wgt>
<wgt id='1438'> +7.5630018e+04 </wgt>
<wgt id='1439'> +7.6361360e+04 </wgt>
<wgt id='1440'> +7.5599762e+04 </wgt>
<wgt id='1441'> +7.5563705e+04 </wgt>
<wgt id='1442'> +7.4946715e+04 </wgt>
<wgt id='1443'> +7.5383050e+04 </wgt>
<wgt id='1444'> +7.6429519e+04 </wgt>
<wgt id='1445'> +7.5610302e+04 </wgt>
<wgt id='1446'> +7.6065407e+04 </wgt>
<wgt id='1447'> +7.6801870e+04 </wgt>
<wgt id='1448'> +7.6510445e+04 </wgt>
<wgt id='1449'> +7.5405150e+04 </wgt>
<wgt id='1450'> +7.6441127e+04 </wgt>
<wgt id='1451'> +7.5631106e+04 </wgt>
<wgt id='1452'> +7.5964142e+04 </wgt>
<wgt id='1453'> +7.5459925e+04 </wgt>
<wgt id='1454'> +7.6063849e+04 </wgt>
<wgt id='1455'> +7.6081935e+04 </wgt>
<wgt id='1456'> +7.5806014e+04 </wgt>
<wgt id='1457'> +7.5824692e+04 </wgt>
<wgt id='1458'> +7.5633572e+04 </wgt>
<wgt id='1459'> +7.6267710e+04 </wgt>
<wgt id='1460'> +7.5900282e+04 </wgt>
<wgt id='1461'> +7.5955444e+04 </wgt>
<wgt id='1462'> +7.5849867e+04 </wgt>
<wgt id='1463'> +7.5944319e+04 </wgt>
<wgt id='1464'> +7.5673555e+04 </wgt>
<wgt id='1465'> +7.5987026e+04 </wgt>
<wgt id='1466'> +7.5612743e+04 </wgt>
<wgt id='1467'> +7.5850433e+04 </wgt>
<wgt id='1468'> +7.5950517e+04 </wgt>
<wgt id='1469'> +7.5738807e+04 </wgt>
<wgt id='1470'> +7.5706414e+04 </wgt>
<wgt id='1471'> +7.5731870e+04 </wgt>
<wgt id='1472'> +7.5901186e+04 </wgt>
<wgt id='1473'> +7.5893361e+04 </wgt>
<wgt id='1474'> +7.5862749e+04 </wgt>
<wgt id='1475'> +7.5884434e+04 </wgt>
<wgt id='1476'> +7.5751934e+04 </wgt>
<wgt id='1477'> +7.5802554e+04 </wgt>
<wgt id='1478'> +7.5768541e+04 </wgt>
<wgt id='1479'> +7.5705773e+04 </wgt>
<wgt id='1480'> +7.5867518e+04 </wgt>
<wgt id='1481'> +7.5884749e+04 </wgt>
<wgt id='1482'> +7.6753615e+04 </wgt>
<wgt id='1483'> +7.5339752e+04 </wgt>
<wgt id='1484'> +7.4193447e+04 </wgt>
<wgt id='1485'> +7.1942551e+04 </wgt>
<wgt id='1486'> +7.6970876e+04 </wgt>
<wgt id='1487'> +7.4933163e+04 </wgt>
<wgt id='1488'> +7.2823872e+04 </wgt>
<wgt id='1489'> +6.9927461e+04 </wgt>
<wgt id='1490'> +7.8940100e+04 </wgt>
<wgt id='1491'> +7.5647146e+04 </wgt>
<wgt id='1492'> +7.1842037e+04 </wgt>
<wgt id='1493'> +7.3901212e+04 </wgt>
<wgt id='1494'> +7.5246806e+04 </wgt>
<wgt id='1495'> +7.2036672e+04 </wgt>
<wgt id='1496'> +7.1710741e+04 </wgt>
<wgt id='1497'> +7.3030265e+04 </wgt>
<wgt id='1498'> +7.5482364e+04 </wgt>
<wgt id='1499'> +7.2427774e+04 </wgt>
<wgt id='1500'> +7.7216788e+04 </wgt>
<wgt id='1501'> +7.6026201e+04 </wgt>
<wgt id='1502'> +7.2927059e+04 </wgt>
<wgt id='1503'> +7.2770291e+04 </wgt>
<wgt id='1504'> +7.5944265e+04 </wgt>
<wgt id='1505'> +7.5689860e+04 </wgt>
<wgt id='1506'> +7.5153664e+04 </wgt>
<wgt id='1507'> +7.2635026e+04 </wgt>
<wgt id='1508'> +7.2719240e+04 </wgt>
<wgt id='1509'> +7.5633276e+04 </wgt>
<wgt id='1510'> +7.2714154e+04 </wgt>
<wgt id='1511'> +7.6625809e+04 </wgt>
<wgt id='1512'> +7.5129044e+04 </wgt>
<wgt id='1513'> +7.3241250e+04 </wgt>
<wgt id='1514'> +6.8557814e+04 </wgt>
<wgt id='1515'> +7.6071405e+04 </wgt>
<wgt id='1516'> +7.4487393e+04 </wgt>
<wgt id='1517'> +7.6591702e+04 </wgt>
<wgt id='1518'> +7.3934802e+04 </wgt>
<wgt id='1519'> +7.4111629e+04 </wgt>
<wgt id='1520'> +7.7715886e+04 </wgt>
<wgt id='1521'> +7.6923608e+04 </wgt>
<wgt id='1522'> +7.4944901e+04 </wgt>
<wgt id='1523'> +7.1810535e+04 </wgt>
<wgt id='1524'> +7.5957030e+04 </wgt>
<wgt id='1525'> +7.4790506e+04 </wgt>
<wgt id='1526'> +7.3187926e+04 </wgt>
<wgt id='1527'> +7.6440385e+04 </wgt>
<wgt id='1528'> +7.3293394e+04 </wgt>
<wgt id='1529'> +7.2879027e+04 </wgt>
<wgt id='1530'> +7.2790006e+04 </wgt>
<wgt id='1531'> +7.2646793e+04 </wgt>
<wgt id='1532'> +7.7287657e+04 </wgt>
<wgt id='1533'> +7.8108096e+04 </wgt>
<wgt id='1534'> +7.3432128e+04 </wgt>
<wgt id='1535'> +7.4367125e+04 </wgt>
<wgt id='1536'> +7.7193816e+04 </wgt>
<wgt id='1537'> +7.5740997e+04 </wgt>
<wgt id='1538'> +6.8008856e+04 </wgt>
<wgt id='1539'> +7.1306544e+04 </wgt>
<wgt id='1540'> +7.3073569e+04 </wgt>
<wgt id='1541'> +7.5591387e+04 </wgt>
<wgt id='1542'> +7.3578390e+04 </wgt>
<wgt id='1543'> +7.2433360e+04 </wgt>
<wgt id='1544'> +7.3696589e+04 </wgt>
<wgt id='1545'> +7.6748778e+04 </wgt>
<wgt id='1546'> +7.5179924e+04 </wgt>
<wgt id='1547'> +7.2476983e+04 </wgt>
<wgt id='1548'> +7.4753739e+04 </wgt>
<wgt id='1549'> +7.2304733e+04 </wgt>
<wgt id='1550'> +7.2544259e+04 </wgt>
<wgt id='1551'> +7.4992780e+04 </wgt>
<wgt id='1552'> +7.5364797e+04 </wgt>
<wgt id='1553'> +7.5116939e+04 </wgt>
<wgt id='1554'> +8.0025942e+04 </wgt>
<wgt id='1555'> +7.1274327e+04 </wgt>
<wgt id='1556'> +7.0655016e+04 </wgt>
<wgt id='1557'> +7.2376435e+04 </wgt>
<wgt id='1558'> +7.3609439e+04 </wgt>
<wgt id='1559'> +7.2479354e+04 </wgt>
<wgt id='1560'> +7.6020997e+04 </wgt>
<wgt id='1561'> +7.2812538e+04 </wgt>
<wgt id='1562'> +7.3311610e+04 </wgt>
<wgt id='1563'> +7.0959313e+04 </wgt>
<wgt id='1564'> +7.7372544e+04 </wgt>
<wgt id='1565'> +7.7317143e+04 </wgt>
<wgt id='1566'> +7.5350528e+04 </wgt>
<wgt id='1567'> +7.6149177e+04 </wgt>
<wgt id='1568'> +7.4856169e+04 </wgt>
<wgt id='1569'> +7.2702369e+04 </wgt>
<wgt id='1570'> +7.7510899e+04 </wgt>
<wgt id='1571'> +7.2161655e+04 </wgt>
<wgt id='1572'> +7.3042803e+04 </wgt>
<wgt id='1573'> +7.4225693e+04 </wgt>
<wgt id='1574'> +7.2425884e+04 </wgt>
<wgt id='1575'> +7.3517168e+04 </wgt>
<wgt id='1576'> +7.5201952e+04 </wgt>
<wgt id='1577'> +7.2872612e+04 </wgt>
<wgt id='1578'> +7.4960374e+04 </wgt>
<wgt id='1579'> +7.1897902e+04 </wgt>
<wgt id='1580'> +7.2164660e+04 </wgt>
<wgt id='1581'> +7.5038274e+04 </wgt>
<wgt id='1582'> +7.5321379e+04 </wgt>
<wgt id='1583'> +7.6095172e+04 </wgt>
<wgt id='1584'> +7.3996770e+04 </wgt>
<wgt id='1585'> +7.7844359e+04 </wgt>
<wgt id='1586'> +7.7681770e+04 </wgt>
<wgt id='1587'> +7.7348641e+04 </wgt>
<wgt id='1588'> +7.6753615e+04 </wgt>
<wgt id='1589'> +7.6025994e+04 </wgt>
<wgt id='1590'> +7.5930837e+04 </wgt>
<wgt id='1591'> +7.5339752e+04 </wgt>
<wgt id='1592'> +7.5027885e+04 </wgt>
<wgt id='1593'> +7.1402011e+04 </wgt>
<wgt id='1594'> +7.0291125e+04 </wgt>
<wgt id='1595'> +6.9349599e+04 </wgt>
<wgt id='1596'> +7.0403574e+04 </wgt>
<wgt id='1597'> +7.2492011e+04 </wgt>
<wgt id='1598'> +6.8921364e+04 </wgt>
<wgt id='1599'> +7.3401696e+04 </wgt>
<wgt id='1600'> +7.0306224e+04 </wgt>
<wgt id='1601'> +7.2041050e+04 </wgt>
<wgt id='1602'> +6.7890134e+04 </wgt>
<wgt id='1603'> +7.4395059e+04 </wgt>
<wgt id='1604'> +7.0803541e+04 </wgt>
<wgt id='1605'> +7.3003397e+04 </wgt>
<wgt id='1606'> +7.1437147e+04 </wgt>
<wgt id='1607'> +7.0338443e+04 </wgt>
<wgt id='1608'> +7.1339798e+04 </wgt>
<wgt id='1609'> +7.0338066e+04 </wgt>
<wgt id='1610'> +7.3431927e+04 </wgt>
<wgt id='1611'> +6.9007293e+04 </wgt>
<wgt id='1612'> +7.1732679e+04 </wgt>
<wgt id='1613'> +6.9278682e+04 </wgt>
<wgt id='1614'> +7.1883783e+04 </wgt>
<wgt id='1615'> +7.0599788e+04 </wgt>
<wgt id='1616'> +7.1743329e+04 </wgt>
<wgt id='1617'> +7.0056759e+04 </wgt>
<wgt id='1618'> +7.0167373e+04 </wgt>
<wgt id='1619'> +7.4616615e+04 </wgt>
<wgt id='1620'> +7.1190549e+04 </wgt>
<wgt id='1621'> +7.1302733e+04 </wgt>
<wgt id='1622'> +7.0279746e+04 </wgt>
<wgt id='1623'> +7.0922928e+04 </wgt>
<wgt id='1624'> +7.0632814e+04 </wgt>
<wgt id='1625'> +7.1921379e+04 </wgt>
<wgt id='1626'> +6.9564964e+04 </wgt>
<wgt id='1627'> +7.2613653e+04 </wgt>
<wgt id='1628'> +7.1055442e+04 </wgt>
<wgt id='1629'> +7.1540716e+04 </wgt>
<wgt id='1630'> +7.1248027e+04 </wgt>
<wgt id='1631'> +7.0675016e+04 </wgt>
<wgt id='1632'> +7.0045419e+04 </wgt>
<wgt id='1633'> +7.2070176e+04 </wgt>
<wgt id='1634'> +7.2061755e+04 </wgt>
<wgt id='1635'> +7.0310503e+04 </wgt>
<wgt id='1636'> +7.1452686e+04 </wgt>
<wgt id='1637'> +7.1215330e+04 </wgt>
<wgt id='1638'> +7.3200673e+04 </wgt>
<wgt id='1639'> +7.0409810e+04 </wgt>
<wgt id='1640'> +7.2304039e+04 </wgt>
<wgt id='1641'> +7.0079268e+04 </wgt>
<wgt id='1642'> +7.0675093e+04 </wgt>
<wgt id='1643'> +7.1619119e+04 </wgt>
<wgt id='1644'> +7.3395368e+04 </wgt>
<wgt id='1645'> +6.8208639e+04 </wgt>
<wgt id='1646'> +7.0771844e+04 </wgt>
<wgt id='1647'> +7.2057480e+04 </wgt>
<wgt id='1648'> +6.9959927e+04 </wgt>
<wgt id='1649'> +7.1621438e+04 </wgt>
<wgt id='1650'> +7.2052026e+04 </wgt>
<wgt id='1651'> +7.0446910e+04 </wgt>
<wgt id='1652'> +7.1488694e+04 </wgt>
<wgt id='1653'> +7.1433797e+04 </wgt>
<wgt id='1654'> +7.1398899e+04 </wgt>
<wgt id='1655'> +7.1427645e+04 </wgt>
<wgt id='1656'> +7.3209386e+04 </wgt>
<wgt id='1657'> +7.0963883e+04 </wgt>
<wgt id='1658'> +7.2853686e+04 </wgt>
<wgt id='1659'> +7.4518360e+04 </wgt>
<wgt id='1660'> +7.2085842e+04 </wgt>
<wgt id='1661'> +7.3015382e+04 </wgt>
<wgt id='1662'> +7.2706096e+04 </wgt>
<wgt id='1663'> +7.2611667e+04 </wgt>
<wgt id='1664'> +7.1633316e+04 </wgt>
<wgt id='1665'> +7.3471339e+04 </wgt>
<wgt id='1666'> +7.2322182e+04 </wgt>
<wgt id='1667'> +7.4232556e+04 </wgt>
<wgt id='1668'> +7.2215421e+04 </wgt>
<wgt id='1669'> +7.2287691e+04 </wgt>
<wgt id='1670'> +7.3856740e+04 </wgt>
<wgt id='1671'> +7.3558395e+04 </wgt>
<wgt id='1672'> +7.2727446e+04 </wgt>
<wgt id='1673'> +7.0224573e+04 </wgt>
<wgt id='1674'> +7.4947986e+04 </wgt>
<wgt id='1675'> +7.5126408e+04 </wgt>
<wgt id='1676'> +7.0887317e+04 </wgt>
<wgt id='1677'> +7.2451680e+04 </wgt>
<wgt id='1678'> +7.3780536e+04 </wgt>
<wgt id='1679'> +7.0222620e+04 </wgt>
<wgt id='1680'> +7.6429236e+04 </wgt>
<wgt id='1681'> +7.4092384e+04 </wgt>
<wgt id='1682'> +7.1554685e+04 </wgt>
<wgt id='1683'> +7.2501115e+04 </wgt>
<wgt id='1684'> +7.3673719e+04 </wgt>
<wgt id='1685'> +7.4087183e+04 </wgt>
<wgt id='1686'> +7.1509168e+04 </wgt>
<wgt id='1687'> +7.3340704e+04 </wgt>
<wgt id='1688'> +7.2207808e+04 </wgt>
<wgt id='1689'> +7.3494268e+04 </wgt>
<wgt id='1690'> +7.2956611e+04 </wgt>
<wgt id='1691'> +7.3478008e+04 </wgt>
<wgt id='1692'> +7.2061841e+04 </wgt>
<wgt id='1693'> +7.4734111e+04 </wgt>
<wgt id='1694'> +7.2159927e+04 </wgt>
<wgt id='1695'> +7.2302715e+04 </wgt>
<wgt id='1696'> +7.3124352e+04 </wgt>
<wgt id='1697'> +7.3341231e+04 </wgt>
<wgt id='1698'> +7.2443184e+04 </wgt>
<wgt id='1699'> +7.0392842e+04 </wgt>
<wgt id='1700'> +7.6822412e+04 </wgt>
<wgt id='1701'> +7.1967201e+04 </wgt>
<wgt id='1702'> +7.4575726e+04 </wgt>
<wgt id='1703'> +7.4900943e+04 </wgt>
<wgt id='1704'> +7.1712961e+04 </wgt>
<wgt id='1705'> +7.3131407e+04 </wgt>
<wgt id='1706'> +7.3180907e+04 </wgt>
<wgt id='1707'> +7.2288636e+04 </wgt>
<wgt id='1708'> +7.3727212e+04 </wgt>
<wgt id='1709'> +7.3469990e+04 </wgt>
<wgt id='1710'> +7.2937440e+04 </wgt>
<wgt id='1711'> +7.2334400e+04 </wgt>
<wgt id='1712'> +7.2835750e+04 </wgt>
<wgt id='1713'> +7.3415237e+04 </wgt>
<wgt id='1714'> +7.2633382e+04 </wgt>
<wgt id='1715'> +6.9131257e+04 </wgt>
<wgt id='1716'> +7.3065838e+04 </wgt>
<wgt id='1717'> +7.2498897e+04 </wgt>
<wgt id='1718'> +7.2102958e+04 </wgt>
<wgt id='1719'> +7.3001555e+04 </wgt>
<wgt id='1720'> +7.2503263e+04 </wgt>
<wgt id='1721'> +7.2494907e+04 </wgt>
<wgt id='1722'> +7.2522408e+04 </wgt>
<wgt id='1723'> +7.2459978e+04 </wgt>
<wgt id='1724'> +7.2986943e+04 </wgt>
<wgt id='1725'> +7.2102875e+04 </wgt>
<wgt id='1726'> +7.2490014e+04 </wgt>
<wgt id='1727'> +7.2507081e+04 </wgt>
<wgt id='1728'> +7.0809049e+04 </wgt>
<wgt id='1729'> +7.4149019e+04 </wgt>
<wgt id='1730'> +7.2980096e+04 </wgt>
<wgt id='1731'> +7.2156146e+04 </wgt>
<wgt id='1732'> +7.3353992e+04 </wgt>
<wgt id='1733'> +7.3353992e+04 </wgt>
<wgt id='1734'> +7.2071500e+04 </wgt>
<wgt id='1735'> +7.2786197e+04 </wgt>
<wgt id='1736'> +7.1869536e+04 </wgt>
<wgt id='1737'> +7.3372311e+04 </wgt>
<wgt id='1738'> +7.2712423e+04 </wgt>
<wgt id='1739'> +7.2062680e+04 </wgt>
<wgt id='1740'> +7.2389574e+04 </wgt>
<wgt id='1741'> +7.2758339e+04 </wgt>
<wgt id='1742'> +7.2248648e+04 </wgt>
<wgt id='1743'> +7.2780012e+04 </wgt>
<wgt id='1744'> +7.2832676e+04 </wgt>
<wgt id='1745'> +7.1585292e+04 </wgt>
<wgt id='1746'> +7.2788084e+04 </wgt>
<wgt id='1747'> +7.2306563e+04 </wgt>
<wgt id='1748'> +7.3231772e+04 </wgt>
<wgt id='1749'> +7.0276636e+04 </wgt>
<wgt id='1750'> +7.3073218e+04 </wgt>
<wgt id='1751'> +7.1886973e+04 </wgt>
<wgt id='1752'> +7.2556136e+04 </wgt>
<wgt id='1753'> +7.2426215e+04 </wgt>
<wgt id='1754'> +7.1994491e+04 </wgt>
<wgt id='1755'> +7.2784511e+04 </wgt>
<wgt id='1756'> +7.2952153e+04 </wgt>
<wgt id='1757'> +7.1404111e+04 </wgt>
<wgt id='1758'> +7.2260118e+04 </wgt>
<wgt id='1759'> +7.2564278e+04 </wgt>
<wgt id='1760'> +7.1473370e+04 </wgt>
<wgt id='1761'> +7.3530026e+04 </wgt>
<wgt id='1762'> +7.2449841e+04 </wgt>
<wgt id='1763'> +7.2436217e+04 </wgt>
<wgt id='1764'> +7.2500980e+04 </wgt>
<wgt id='1765'> +7.2432466e+04 </wgt>
<wgt id='1766'> +7.2878052e+04 </wgt>
<wgt id='1767'> +7.2046481e+04 </wgt>
<wgt id='1768'> +7.2690455e+04 </wgt>
<wgt id='1769'> +7.2324174e+04 </wgt>
<wgt id='1770'> +7.2053252e+04 </wgt>
<wgt id='1771'> +7.3019701e+04 </wgt>
<wgt id='1772'> +7.2266457e+04 </wgt>
<wgt id='1773'> +7.3120614e+04 </wgt>
<wgt id='1774'> +7.1597056e+04 </wgt>
<wgt id='1775'> +7.3058117e+04 </wgt>
<wgt id='1776'> +7.3269760e+04 </wgt>
<wgt id='1777'> +7.2157863e+04 </wgt>
<wgt id='1778'> +7.1704648e+04 </wgt>
<wgt id='1779'> +7.2575296e+04 </wgt>
<wgt id='1780'> +7.3422374e+04 </wgt>
<wgt id='1781'> +7.2532272e+04 </wgt>
<wgt id='1782'> +7.2498897e+04 </wgt>
<wgt id='1783'> +7.2587594e+04 </wgt>
<wgt id='1784'> +7.2229173e+04 </wgt>
<wgt id='1785'> +7.2664693e+04 </wgt>
<wgt id='1786'> +7.1111387e+04 </wgt>
<wgt id='1787'> +7.2229588e+04 </wgt>
<wgt id='1788'> +7.0022442e+04 </wgt>
<wgt id='1789'> +7.2275524e+04 </wgt>
<wgt id='1790'> +7.2636442e+04 </wgt>
<wgt id='1791'> +7.2303907e+04 </wgt>
<wgt id='1792'> +7.1908784e+04 </wgt>
<wgt id='1793'> +7.2352300e+04 </wgt>
<wgt id='1794'> +7.2127541e+04 </wgt>
<wgt id='1795'> +7.2419112e+04 </wgt>
<wgt id='1796'> +7.2634131e+04 </wgt>
<wgt id='1797'> +7.1704776e+04 </wgt>
<wgt id='1798'> +7.2303157e+04 </wgt>
<wgt id='1799'> +7.2864036e+04 </wgt>
<wgt id='1800'> +7.2744781e+04 </wgt>
<wgt id='1801'> +7.1850090e+04 </wgt>
<wgt id='1802'> +7.2392190e+04 </wgt>
<wgt id='1803'> +7.2048310e+04 </wgt>
<wgt id='1804'> +7.2126631e+04 </wgt>
<wgt id='1805'> +7.0804026e+04 </wgt>
<wgt id='1806'> +7.1881553e+04 </wgt>
<wgt id='1807'> +7.1994178e+04 </wgt>
<wgt id='1808'> +7.2284985e+04 </wgt>
<wgt id='1809'> +7.2439509e+04 </wgt>
<wgt id='1810'> +7.2267906e+04 </wgt>
<wgt id='1811'> +7.2316432e+04 </wgt>
<wgt id='1812'> +7.2293233e+04 </wgt>
<wgt id='1813'> +7.2149392e+04 </wgt>
<wgt id='1814'> +7.2409822e+04 </wgt>
<wgt id='1815'> +7.2392518e+04 </wgt>
<wgt id='1816'> +7.2301712e+04 </wgt>
<wgt id='1817'> +7.2149255e+04 </wgt>
<wgt id='1818'> +7.2193638e+04 </wgt>
<wgt id='1819'> +7.2860894e+04 </wgt>
<wgt id='1820'> +7.1826608e+04 </wgt>
<wgt id='1821'> +7.2807070e+04 </wgt>
<wgt id='1822'> +7.3672046e+04 </wgt>
<wgt id='1823'> +7.2129246e+04 </wgt>
<wgt id='1824'> +7.2209147e+04 </wgt>
<wgt id='1825'> +7.2452376e+04 </wgt>
<wgt id='1826'> +7.3071477e+04 </wgt>
<wgt id='1827'> +5.5435508e+04 </wgt>
<wgt id='1828'> +5.5595735e+04 </wgt>
<wgt id='1829'> +5.5255965e+04 </wgt>
<wgt id='1830'> +5.5344012e+04 </wgt>
<wgt id='1831'> +5.5506173e+04 </wgt>
<wgt id='1832'> +5.5495987e+04 </wgt>
<wgt id='1833'> +5.5354963e+04 </wgt>
<wgt id='1834'> +5.4888070e+04 </wgt>
<wgt id='1835'> +5.5947369e+04 </wgt>
<wgt id='1836'> +5.5716271e+04 </wgt>
<wgt id='1837'> +5.5126515e+04 </wgt>
<wgt id='1838'> +5.5461496e+04 </wgt>
<wgt id='1839'> +5.5388714e+04 </wgt>
<wgt id='1840'> +5.5359849e+04 </wgt>
<wgt id='1841'> +5.5496209e+04 </wgt>
<wgt id='1842'> +5.5470880e+04 </wgt>
<wgt id='1843'> +5.5528162e+04 </wgt>
<wgt id='1844'> +5.5476579e+04 </wgt>
<wgt id='1845'> +5.5361269e+04 </wgt>
<wgt id='1846'> +5.5310289e+04 </wgt>
<wgt id='1847'> +5.5534503e+04 </wgt>
<wgt id='1848'> +5.5755504e+04 </wgt>
<wgt id='1849'> +5.5007111e+04 </wgt>
<wgt id='1850'> +5.6853533e+04 </wgt>
<wgt id='1851'> +5.4058242e+04 </wgt>
<wgt id='1852'> +5.8333669e+04 </wgt>
<wgt id='1853'> +5.2675541e+04 </wgt>
<wgt id='1854'> +5.7508686e+04 </wgt>
<wgt id='1855'> +5.3540554e+04 </wgt>
<wgt id='1856'> +7.2094019e+04 </wgt>
<wgt id='1857'> +7.2081408e+04 </wgt>
<wgt id='1858'> +7.2005867e+04 </wgt>
<wgt id='1859'> +7.2006134e+04 </wgt>
<wgt id='1860'> +7.2097641e+04 </wgt>
<wgt id='1861'> +7.2271433e+04 </wgt>
<wgt id='1862'> +7.1492901e+04 </wgt>
<wgt id='1863'> +7.2288203e+04 </wgt>
<wgt id='1864'> +7.1957191e+04 </wgt>
<wgt id='1865'> +7.1723324e+04 </wgt>
<wgt id='1866'> +7.1964154e+04 </wgt>
<wgt id='1867'> +7.2059701e+04 </wgt>
<wgt id='1868'> +7.2127700e+04 </wgt>
<wgt id='1869'> +7.2265203e+04 </wgt>
<wgt id='1870'> +7.1873338e+04 </wgt>
<wgt id='1871'> +7.2202219e+04 </wgt>
<wgt id='1872'> +7.1839595e+04 </wgt>
<wgt id='1873'> +7.2054717e+04 </wgt>
<wgt id='1874'> +7.1847731e+04 </wgt>
<wgt id='1875'> +7.2134995e+04 </wgt>
<wgt id='1876'> +7.2482791e+04 </wgt>
<wgt id='1877'> +7.1786820e+04 </wgt>
<wgt id='1878'> +7.1854319e+04 </wgt>
<wgt id='1879'> +7.1760991e+04 </wgt>
<wgt id='1880'> +7.2178977e+04 </wgt>
<wgt id='1881'> +7.1894311e+04 </wgt>
<wgt id='1882'> +7.2374181e+04 </wgt>
<wgt id='1883'> +7.1225215e+04 </wgt>
<wgt id='1884'> +7.2909962e+04 </wgt>
<wgt id='1885'> +7.1602863e+04 </wgt>
<wgt id='1886'> +9.0213457e+04 </wgt>
<wgt id='1887'> +8.9458458e+04 </wgt>
<wgt id='1888'> +6.6415711e+04 </wgt>
<wgt id='1889'> +7.3787511e+04 </wgt>
</rwgt>
</event>
<event npLO=" -1 " npNLO=" 0 ">
 5      1 -7.4519530e+04 2.16703860e+01 7.55820760e-03 1.19668610e-01
        3 -1    0    0  501    0 +0.0000000000e+00 +0.0000000000e+00 +1.3567681745e+01 1.3567681745e+01 0.0000000000e+00 0.0000e+00 -1.0000e+00
       -4 -1    0    0    0  501 +0.0000000000e+00 +0.0000000000e+00 -1.2743801627e+02 1.2743801627e+02 0.0000000000e+00 0.0000e+00 1.0000e+00
      -24  2    1    2    0    0 +0.0000000000e+00 +0.0000000000e+00 -1.1387033453e+02 1.4100569802e+02 8.3163416163e+01 0.0000e+00 0.0000e+00
       11  1    3    3    0    0 -2.3363118508e+01 -1.0921578000e+00 +1.3576410350e+00 2.3428002567e+01 0.0000000000e+00 0.0000e+00 -1.0000e+00
      -12  1    3    3    0    0 +2.3363118508e+01 +1.0921578000e+00 -1.1522797556e+02 1.1757769545e+02 0.0000000000e+00 0.0000e+00 1.0000e+00
#aMCatNLO 1  0  0  2  1 0.39064876E+00 0.00000000E+00 -9  5  0 0.00000000E+00 0.00000000E+00 0.00000000E+00 0.00000000E+00 0.00000000E+00
<rwgt>
<wgt id='1001'> -7.4519530e+04 </wgt>
<wgt id='1002'> -6.5221603e+04 </wgt>
<wgt id='1003'> -8.6090234e+04 </wgt>
<wgt id='1004'> -9.0123269e+04 </wgt>
<wgt id='1005'> -7.8959594e+04 </wgt>
<wgt id='1006'> -1.0401659e+05 </wgt>
<wgt id='1007'> -5.8294719e+04 </wgt>
<wgt id='1008'> -5.0945039e+04 </wgt>
<wgt id='1009'> -6.7441483e+04 </wgt>
<wgt id='1010'> -7.4519530e+04 </wgt>
<wgt id='1011'> -7.4525387e+04 </wgt>
<wgt id='1012'> -7.4584442e+04 </wgt>
<wgt id='1013'> -7.5401825e+04 </wgt>
<wgt id='1014'> -7.3211559e+04 </wgt>
<wgt id='1015'> -7.5929114e+04 </wgt>
<wgt id='1016'> -7.3198042e+04 </wgt>
<wgt id='1017'> -7.4265789e+04 </wgt>
<wgt id='1018'> -7.4962718e+04 </wgt>
<wgt id='1019'> -7.4720381e+04 </wgt>
<wgt id='1020'> -7.5518189e+04 </wgt>
<wgt id='1021'> -7.4771002e+04 </wgt>
<wgt id='1022'> -7.3396383e+04 </wgt>
<wgt id='1023'> -7.4239231e+04 </wgt>
<wgt id='1024'> -7.4252134e+04 </wgt>
<wgt id='1025'> -7.3576385e+04 </wgt>
<wgt id='1026'> -7.4967014e+04 </wgt>
<wgt id='1027'> -7.4241824e+04 </wgt>
<wgt id='1028'> -7.4062053e+04 </wgt>
<wgt id='1029'> -7.4585497e+04 </wgt>
<wgt id='1030'> -7.4255373e+04 </wgt>
<wgt id='1031'> -7.4398622e+04 </wgt>
<wgt id='1032'> -7.5024725e+04 </wgt>
<wgt id='1033'> -7.4398033e+04 </wgt>
<wgt id='1034'> -7.4401405e+04 </wgt>
<wgt id='1035'> -7.4498454e+04 </wgt>
<wgt id='1036'> -7.4095373e+04 </wgt>
<wgt id='1037'> -7.5570552e+04 </wgt>
<wgt id='1038'> -7.4601550e+04 </wgt>
<wgt id='1039'> -7.4014547e+04 </wgt>
<wgt id='1040'> -7.4840490e+04 </wgt>
<wgt id='1041'> -7.5173114e+04 </wgt>
<wgt id='1042'> -7.4531327e+04 </wgt>
<wgt id='1043'> -7.4339797e+04 </wgt>
<wgt id='1044'> -7.4505028e+04 </wgt>
<wgt id='1045'> -7.4760748e+04 </wgt>
<wgt id='1046'> -7.4794246e+04 </wgt>
<wgt id='1047'> -7.4425952e+04 </wgt>
<wgt id='1048'> -7.5011789e+04 </wgt>
<wgt id='1049'> -7.4884765e+04 </wgt>
<wgt id='1050'> -7.4903475e+04 </wgt>
<wgt id='1051'> -7.5026455e+04 </wgt>
<wgt id='1052'> -7.4591516e+04 </wgt>
<wgt id='1053'> -7.4010805e+04 </wgt>
<wgt id='1054'> -7.4703936e+04 </wgt>
<wgt id='1055'> -7.4594461e+04 </wgt>
<wgt id='1056'> -7.4792298e+04 </wgt>
<wgt id='1057'> -7.4303709e+04 </wgt>
<wgt id='1058'> -7.4754681e+04 </wgt>
<wgt id='1059'> -7.4376186e+04 </wgt>
<wgt id='1060'> -7.4154720e+04 </wgt>
<wgt id='1061'> -7.4239267e+04 </wgt>
<wgt id='1062'> -7.4580604e+04 </wgt>
<wgt id='1063'> -7.4166950e+04 </wgt>
<wgt id='1064'> -7.4452046e+04 </wgt>
<wgt id='1065'> -7.4456356e+04 </wgt>
<wgt id='1066'> -7.5091555e+04 </wgt>
<wgt id='1067'> -7.4613469e+04 </wgt>
<wgt id='1068'> -7.4465340e+04 </wgt>
<wgt id='1069'> -7.4889517e+04 </wgt>
<wgt id='1070'> -7.4646207e+04 </wgt>
<wgt id='1071'> -7.4527227e+04 </wgt>
<wgt id='1072'> -7.4670434e+04 </wgt>
<wgt id='1073'> -7.4666602e+04 </wgt>
<wgt id='1074'> -7.4746513e+04 </wgt>
<wgt id='1075'> -7.4629661e+04 </wgt>
<wgt id='1076'> -7.4498884e+04 </wgt>
<wgt id='1077'> -7.4733672e+04 </wgt>
<wgt id='1078'> -7.4460090e+04 </wgt>
<wgt id='1079'> -7.4655249e+04 </wgt>
<wgt id='1080'> -7.4770357e+04 </wgt>
<wgt id='1081'> -7.4675259e+04 </wgt>
<wgt id='1082'> -7.4440496e+04 </wgt>
<wgt id='1083'> -7.4828293e+04 </wgt>
<wgt id='1084'> -7.4643067e+04 </wgt>
<wgt id='1085'> -7.4755127e+04 </wgt>
<wgt id='1086'> -7.4511032e+04 </wgt>
<wgt id='1087'> -7.4385634e+04 </wgt>
<wgt id='1088'> -7.4598153e+04 </wgt>
<wgt id='1089'> -7.4404211e+04 </wgt>
<wgt id='1090'> -7.4348047e+04 </wgt>
<wgt id='1091'> -7.4396542e+04 </wgt>
<wgt id='1092'> -7.4522338e+04 </wgt>
<wgt id='1093'> -7.4663697e+04 </wgt>
<wgt id='1094'> -7.4524027e+04 </wgt>
<wgt id='1095'> -7.4629099e+04 </wgt>
<wgt id='1096'> -7.4338597e+04 </wgt>
<wgt id='1097'> -7.4615143e+04 </wgt>
<wgt id='1098'> -7.4395540e+04 </wgt>
<wgt id='1099'> -7.4495545e+04 </wgt>
<wgt id='1100'> -7.4354797e+04 </wgt>
<wgt id='1101'> -7.4618554e+04 </wgt>
<wgt id='1102'> -7.4625829e+04 </wgt>
<wgt id='1103'> -7.4424012e+04 </wgt>
<wgt id='1104'> -7.4484198e+04 </wgt>
<wgt id='1105'> -7.4696169e+04 </wgt>
<wgt id='1106'> -7.4734798e+04 </wgt>
<wgt id='1107'> -7.4614112e+04 </wgt>
<wgt id='1108'> -7.4563242e+04 </wgt>
<wgt id='1109'> -7.4536852e+04 </wgt>
<wgt id='1110'> -7.4519231e+04 </wgt>
<wgt id='1111'> -7.4861883e+04 </wgt>
<wgt id='1112'> -7.3155772e+04 </wgt>
<wgt id='1113'> -7.4519231e+04 </wgt>
<wgt id='1114'> -7.4651622e+04 </wgt>
<wgt id='1115'> -7.4208636e+04 </wgt>
<wgt id='1116'> -6.8329904e+04 </wgt>
<wgt id='1117'> -7.4011056e+04 </wgt>
<wgt id='1118'> -7.4433163e+04 </wgt>
<wgt id='1119'> -7.3139540e+04 </wgt>
<wgt id='1120'> -7.2177359e+04 </wgt>
<wgt id='1121'> -7.5096583e+04 </wgt>
<wgt id='1122'> -7.0114103e+04 </wgt>
<wgt id='1123'> -7.0451305e+04 </wgt>
<wgt id='1124'> -7.4672967e+04 </wgt>
<wgt id='1125'> -7.5527124e+04 </wgt>
<wgt id='1126'> -7.6340463e+04 </wgt>
<wgt id='1127'> -7.4441245e+04 </wgt>
<wgt id='1128'> -7.5079983e+04 </wgt>
<wgt id='1129'> -7.7195124e+04 </wgt>
<wgt id='1130'> -6.3406471e+04 </wgt>
<wgt id='1131'> -7.8405591e+04 </wgt>
<wgt id='1132'> -7.6896326e+04 </wgt>
<wgt id='1133'> -7.4921692e+04 </wgt>
<wgt id='1134'> -7.0649041e+04 </wgt>
<wgt id='1135'> -7.7264830e+04 </wgt>
<wgt id='1136'> -7.4163216e+04 </wgt>
<wgt id='1137'> -7.7969336e+04 </wgt>
<wgt id='1138'> -7.4482723e+04 </wgt>
<wgt id='1139'> -7.8029673e+04 </wgt>
<wgt id='1140'> -6.3355403e+04 </wgt>
<wgt id='1141'> -7.5132485e+04 </wgt>
<wgt id='1142'> -7.2839594e+04 </wgt>
<wgt id='1143'> -6.5031196e+04 </wgt>
<wgt id='1144'> -7.2738001e+04 </wgt>
<wgt id='1145'> -7.2948498e+04 </wgt>
<wgt id='1146'> -7.4694667e+04 </wgt>
<wgt id='1147'> -7.7845303e+04 </wgt>
<wgt id='1148'> -7.5122029e+04 </wgt>
<wgt id='1149'> -7.5334226e+04 </wgt>
<wgt id='1150'> -8.0864335e+04 </wgt>
<wgt id='1151'> -6.9960271e+04 </wgt>
<wgt id='1152'> -7.6258452e+04 </wgt>
<wgt id='1153'> -7.5955024e+04 </wgt>
<wgt id='1154'> -7.4740295e+04 </wgt>
<wgt id='1155'> -7.6248239e+04 </wgt>
<wgt id='1156'> -7.3159965e+04 </wgt>
<wgt id='1157'> -7.1890449e+04 </wgt>
<wgt id='1158'> -8.2933316e+04 </wgt>
<wgt id='1159'> -7.8723788e+04 </wgt>
<wgt id='1160'> -7.4214874e+04 </wgt>
<wgt id='1161'> -7.5133992e+04 </wgt>
<wgt id='1162'> -7.2833748e+04 </wgt>
<wgt id='1163'> -7.3797850e+04 </wgt>
<wgt id='1164'> -7.7695183e+04 </wgt>
<wgt id='1165'> -7.0117433e+04 </wgt>
<wgt id='1166'> -6.8988328e+04 </wgt>
<wgt id='1167'> -7.6835927e+04 </wgt>
<wgt id='1168'> -7.9859087e+04 </wgt>
<wgt id='1169'> -7.7711247e+04 </wgt>
<wgt id='1170'> -7.9329008e+04 </wgt>
<wgt id='1171'> -7.4176539e+04 </wgt>
<wgt id='1172'> -6.8420612e+04 </wgt>
<wgt id='1173'> -7.4266303e+04 </wgt>
<wgt id='1174'> -7.0853157e+04 </wgt>
<wgt id='1175'> -7.4943656e+04 </wgt>
<wgt id='1176'> -7.5709214e+04 </wgt>
<wgt id='1177'> -7.5182440e+04 </wgt>
<wgt id='1178'> -7.9365622e+04 </wgt>
<wgt id='1179'> -8.0077124e+04 </wgt>
<wgt id='1180'> -8.2713162e+04 </wgt>
<wgt id='1181'> -6.7996835e+04 </wgt>
<wgt id='1182'> -7.3090208e+04 </wgt>
<wgt id='1183'> -7.2675726e+04 </wgt>
<wgt id='1184'> -6.7695534e+04 </wgt>
<wgt id='1185'> -8.5526067e+04 </wgt>
<wgt id='1186'> -7.1790937e+04 </wgt>
<wgt id='1187'> -7.2892744e+04 </wgt>
<wgt id='1188'> -7.5090871e+04 </wgt>
<wgt id='1189'> -7.7671336e+04 </wgt>
<wgt id='1190'> -6.7655016e+04 </wgt>
<wgt id='1191'> -7.3074791e+04 </wgt>
<wgt id='1192'> -7.3547640e+04 </wgt>
<wgt id='1193'> -6.8015317e+04 </wgt>
<wgt id='1194'> -7.5004070e+04 </wgt>
<wgt id='1195'> -7.7195124e+04 </wgt>
<wgt id='1196'> -7.5299714e+04 </wgt>
<wgt id='1197'> -7.5931685e+04 </wgt>
<wgt id='1198'> -7.5800795e+04 </wgt>
<wgt id='1199'> -7.6331690e+04 </wgt>
<wgt id='1200'> -8.0712146e+04 </wgt>
<wgt id='1201'> -6.7721678e+04 </wgt>
<wgt id='1202'> -7.3872849e+04 </wgt>
<wgt id='1203'> -7.5794586e+04 </wgt>
<wgt id='1204'> -7.9152530e+04 </wgt>
<wgt id='1205'> -7.6630062e+04 </wgt>
<wgt id='1206'> -7.5353665e+04 </wgt>
<wgt id='1207'> -7.0012179e+04 </wgt>
<wgt id='1208'> -8.2425073e+04 </wgt>
<wgt id='1209'> -7.5917719e+04 </wgt>
<wgt id='1210'> -7.3335077e+04 </wgt>
<wgt id='1211'> -6.8679906e+04 </wgt>
<wgt id='1212'> -7.6680797e+04 </wgt>
<wgt id='1213'> -7.6253591e+04 </wgt>
<wgt id='1214'> -7.4425310e+04 </wgt>
<wgt id='1215'> -7.7323123e+04 </wgt>
<wgt id='1216'> -7.7465637e+04 </wgt>
<wgt id='1217'> -7.6917756e+04 </wgt>
<wgt id='1218'> -7.5946739e+04 </wgt>
<wgt id='1219'> -7.4572937e+04 </wgt>
<wgt id='1220'> -7.3651377e+04 </wgt>
<wgt id='1221'> -7.2191366e+04 </wgt>
<wgt id='1222'> -7.1023333e+04 </wgt>
<wgt id='1223'> -7.6836332e+04 </wgt>
<wgt id='1224'> -7.7085720e+04 </wgt>
<wgt id='1225'> -7.6622240e+04 </wgt>
<wgt id='1226'> -7.6670819e+04 </wgt>
<wgt id='1227'> -7.5010537e+04 </wgt>
<wgt id='1228'> -7.6367258e+04 </wgt>
<wgt id='1229'> -7.7387838e+04 </wgt>
<wgt id='1230'> -7.6706420e+04 </wgt>
<wgt id='1231'> -7.7579564e+04 </wgt>
<wgt id='1232'> -7.6841862e+04 </wgt>
<wgt id='1233'> -7.8369209e+04 </wgt>
<wgt id='1234'> -7.7122346e+04 </wgt>
<wgt id='1235'> -7.6059176e+04 </wgt>
<wgt id='1236'> -7.7163858e+04 </wgt>
<wgt id='1237'> -7.6110189e+04 </wgt>
<wgt id='1238'> -7.7488850e+04 </wgt>
<wgt id='1239'> -7.6162439e+04 </wgt>
<wgt id='1240'> -7.6725770e+04 </wgt>
<wgt id='1241'> -7.6910635e+04 </wgt>
<wgt id='1242'> -7.6777634e+04 </wgt>
<wgt id='1243'> -7.6471128e+04 </wgt>
<wgt id='1244'> -7.7044108e+04 </wgt>
<wgt id='1245'> -7.6762327e+04 </wgt>
<wgt id='1246'> -7.6361963e+04 </wgt>
<wgt id='1247'> -7.7470458e+04 </wgt>
<wgt id='1248'> -7.6115147e+04 </wgt>
<wgt id='1249'> -7.6981940e+04 </wgt>
<wgt id='1250'> -7.7105371e+04 </wgt>
<wgt id='1251'> -7.6335892e+04 </wgt>
<wgt id='1252'> -7.8014584e+04 </wgt>
<wgt id='1253'> -7.7001098e+04 </wgt>
<wgt id='1254'> -7.6718911e+04 </wgt>
<wgt id='1255'> -7.6603659e+04 </wgt>
<wgt id='1256'> -7.7240240e+04 </wgt>
<wgt id='1257'> -7.7071793e+04 </wgt>
<wgt id='1258'> -7.7106946e+04 </wgt>
<wgt id='1259'> -7.6940593e+04 </wgt>
<wgt id='1260'> -7.6744866e+04 </wgt>
<wgt id='1261'> -7.6769560e+04 </wgt>
<wgt id='1262'> -7.6772722e+04 </wgt>
<wgt id='1263'> -7.7023211e+04 </wgt>
<wgt id='1264'> -7.6042885e+04 </wgt>
<wgt id='1265'> -7.6528505e+04 </wgt>
<wgt id='1266'> -7.6775312e+04 </wgt>
<wgt id='1267'> -7.6681120e+04 </wgt>
<wgt id='1268'> -7.7073603e+04 </wgt>
<wgt id='1269'> -7.7086719e+04 </wgt>
<wgt id='1270'> -7.6532519e+04 </wgt>
<wgt id='1271'> -7.6587726e+04 </wgt>
<wgt id='1272'> -7.7278158e+04 </wgt>
<wgt id='1273'> -7.6984976e+04 </wgt>
<wgt id='1274'> -7.7224516e+04 </wgt>
<wgt id='1275'> -7.6497948e+04 </wgt>
<wgt id='1276'> -7.6795995e+04 </wgt>
<wgt id='1277'> -7.6445821e+04 </wgt>
<wgt id='1278'> -7.6679036e+04 </wgt>
<wgt id='1279'> -7.7154897e+04 </wgt>
<wgt id='1280'> -7.6698122e+04 </wgt>
<wgt id='1281'> -7.6727725e+04 </wgt>
<wgt id='1282'> -7.6792171e+04 </wgt>
<wgt id='1283'> -7.7002860e+04 </wgt>
<wgt id='1284'> -7.7148400e+04 </wgt>
<wgt id='1285'> -7.7070390e+04 </wgt>
<wgt id='1286'> -7.6985646e+04 </wgt>
<wgt id='1287'> -7.6929798e+04 </wgt>
<wgt id='1288'> -7.6881282e+04 </wgt>
<wgt id='1289'> -7.7254656e+04 </wgt>
<wgt id='1290'> -7.6552627e+04 </wgt>
<wgt id='1291'> -7.6689576e+04 </wgt>
<wgt id='1292'> -7.6789030e+04 </wgt>
<wgt id='1293'> -7.6732567e+04 </wgt>
<wgt id='1294'> -7.6943494e+04 </wgt>
<wgt id='1295'> -7.6658329e+04 </wgt>
<wgt id='1296'> -7.6888852e+04 </wgt>
<wgt id='1297'> -7.7147521e+04 </wgt>
<wgt id='1298'> -7.6821496e+04 </wgt>
<wgt id='1299'> -7.7046850e+04 </wgt>
<wgt id='1300'> -7.6920408e+04 </wgt>
<wgt id='1301'> -7.6923588e+04 </wgt>
<wgt id='1302'> -7.6710626e+04 </wgt>
<wgt id='1303'> -7.6946039e+04 </wgt>
<wgt id='1304'> -7.6773729e+04 </wgt>
<wgt id='1305'> -7.6602696e+04 </wgt>
<wgt id='1306'> -7.6667822e+04 </wgt>
<wgt id='1307'> -7.7005445e+04 </wgt>
<wgt id='1308'> -7.7078144e+04 </wgt>
<wgt id='1309'> -7.6835212e+04 </wgt>
<wgt id='1310'> -7.6652066e+04 </wgt>
<wgt id='1311'> -7.6915828e+04 </wgt>
<wgt id='1312'> -7.6886162e+04 </wgt>
<wgt id='1313'> -7.6884957e+04 </wgt>
<wgt id='1314'> -7.6664235e+04 </wgt>
<wgt id='1315'> -7.6779594e+04 </wgt>
<wgt id='1316'> -7.6984829e+04 </wgt>
<wgt id='1317'> -7.6693081e+04 </wgt>
<wgt id='1318'> -7.6695576e+04 </wgt>
<wgt id='1319'> -7.6990880e+04 </wgt>
<wgt id='1320'> -7.6900486e+04 </wgt>
<wgt id='1321'> -7.6776874e+04 </wgt>
<wgt id='1322'> -7.6832712e+04 </wgt>
<wgt id='1323'> -7.6971274e+04 </wgt>
<wgt id='1324'> -7.7202150e+04 </wgt>
<wgt id='1325'> -7.6022624e+04 </wgt>
<wgt id='1326'> -6.3118431e+04 </wgt>
<wgt id='1327'> -6.3135112e+04 </wgt>
<wgt id='1328'> -7.5138075e+04 </wgt>
<wgt id='1329'> -7.4906038e+04 </wgt>
<wgt id='1330'> -7.3082987e+04 </wgt>
<wgt id='1331'> -7.6222663e+04 </wgt>
<wgt id='1332'> -7.2346623e+04 </wgt>
<wgt id='1333'> -7.3611152e+04 </wgt>
<wgt id='1334'> -7.4597539e+04 </wgt>
<wgt id='1335'> -7.3448476e+04 </wgt>
<wgt id='1336'> -7.4718361e+04 </wgt>
<wgt id='1337'> -7.1599938e+04 </wgt>
<wgt id='1338'> -7.8038339e+04 </wgt>
<wgt id='1339'> -7.6424722e+04 </wgt>
<wgt id='1340'> -7.3421358e+04 </wgt>
<wgt id='1341'> -7.8310496e+04 </wgt>
<wgt id='1342'> -7.2826574e+04 </wgt>
<wgt id='1343'> -7.6165354e+04 </wgt>
<wgt id='1344'> -7.7070463e+04 </wgt>
<wgt id='1345'> -7.6939833e+04 </wgt>
<wgt id='1346'> -7.3788228e+04 </wgt>
<wgt id='1347'> -7.5408692e+04 </wgt>
<wgt id='1348'> -7.4083258e+04 </wgt>
<wgt id='1349'> -7.7252832e+04 </wgt>
<wgt id='1350'> -7.7009365e+04 </wgt>
<wgt id='1351'> -7.5233897e+04 </wgt>
<wgt id='1352'> -7.5659648e+04 </wgt>
<wgt id='1353'> -7.5051951e+04 </wgt>
<wgt id='1354'> -7.5640831e+04 </wgt>
<wgt id='1355'> -7.5354734e+04 </wgt>
<wgt id='1356'> -7.5453490e+04 </wgt>
<wgt id='1357'> -7.7791083e+04 </wgt>
<wgt id='1358'> -7.4502402e+04 </wgt>
<wgt id='1359'> -7.6043427e+04 </wgt>
<wgt id='1360'> -7.4226602e+04 </wgt>
<wgt id='1361'> -7.2017344e+04 </wgt>
<wgt id='1362'> -7.4528744e+04 </wgt>
<wgt id='1363'> -7.5111070e+04 </wgt>
<wgt id='1364'> -7.7031264e+04 </wgt>
<wgt id='1365'> -7.4731508e+04 </wgt>
<wgt id='1366'> -7.4371879e+04 </wgt>
<wgt id='1367'> -7.6106654e+04 </wgt>
<wgt id='1368'> -7.4949550e+04 </wgt>
<wgt id='1369'> -7.4788493e+04 </wgt>
<wgt id='1370'> -7.5533331e+04 </wgt>
<wgt id='1371'> -7.1266948e+04 </wgt>
<wgt id='1372'> -7.2459445e+04 </wgt>
<wgt id='1373'> -7.2980877e+04 </wgt>
<wgt id='1374'> -7.7326975e+04 </wgt>
<wgt id='1375'> -7.3573631e+04 </wgt>
<wgt id='1376'> -7.5944520e+04 </wgt>
<wgt id='1377'> -7.4426821e+04 </wgt>
<wgt id='1378'> -7.7178434e+04 </wgt>
<wgt id='1379'> -7.4998763e+04 </wgt>
<wgt id='1380'> -7.2106105e+04 </wgt>
<wgt id='1381'> -7.2599056e+04 </wgt>
<wgt id='1382'> -7.7545339e+04 </wgt>
<wgt id='1383'> -7.5573401e+04 </wgt>
<wgt id='1384'> -7.5210619e+04 </wgt>
<wgt id='1385'> -7.6422567e+04 </wgt>
<wgt id='1386'> -7.4489175e+04 </wgt>
<wgt id='1387'> -7.2250831e+04 </wgt>
<wgt id='1388'> -7.4800800e+04 </wgt>
<wgt id='1389'> -7.3580761e+04 </wgt>
<wgt id='1390'> -7.8050215e+04 </wgt>
<wgt id='1391'> -7.6326412e+04 </wgt>
<wgt id='1392'> -7.8589007e+04 </wgt>
<wgt id='1393'> -7.3632064e+04 </wgt>
<wgt id='1394'> -7.4731508e+04 </wgt>
<wgt id='1395'> -7.6894214e+04 </wgt>
<wgt id='1396'> -7.4850706e+04 </wgt>
<wgt id='1397'> -7.4706841e+04 </wgt>
<wgt id='1398'> -7.6339866e+04 </wgt>
<wgt id='1399'> -7.4557689e+04 </wgt>
<wgt id='1400'> -7.5508820e+04 </wgt>
<wgt id='1401'> -7.4635168e+04 </wgt>
<wgt id='1402'> -7.4813648e+04 </wgt>
<wgt id='1403'> -7.8025252e+04 </wgt>
<wgt id='1404'> -7.6519283e+04 </wgt>
<wgt id='1405'> -7.2604125e+04 </wgt>
<wgt id='1406'> -7.4127967e+04 </wgt>
<wgt id='1407'> -7.7085201e+04 </wgt>
<wgt id='1408'> -7.5577094e+04 </wgt>
<wgt id='1409'> -7.6652902e+04 </wgt>
<wgt id='1410'> -7.1276277e+04 </wgt>
<wgt id='1411'> -7.5123492e+04 </wgt>
<wgt id='1412'> -7.4624808e+04 </wgt>
<wgt id='1413'> -7.5894684e+04 </wgt>
<wgt id='1414'> -7.7772280e+04 </wgt>
<wgt id='1415'> -7.6879654e+04 </wgt>
<wgt id='1416'> -7.4916872e+04 </wgt>
<wgt id='1417'> -7.6749497e+04 </wgt>
<wgt id='1418'> -7.4879400e+04 </wgt>
<wgt id='1419'> -7.4345751e+04 </wgt>
<wgt id='1420'> -7.4438942e+04 </wgt>
<wgt id='1421'> -7.5560466e+04 </wgt>
<wgt id='1422'> -7.5846089e+04 </wgt>
<wgt id='1423'> -7.6719189e+04 </wgt>
<wgt id='1424'> -7.8357527e+04 </wgt>
<wgt id='1425'> -7.3699572e+04 </wgt>
<wgt id='1426'> -7.5233083e+04 </wgt>
<wgt id='1427'> -7.3671291e+04 </wgt>
<wgt id='1428'> -7.3305032e+04 </wgt>
<wgt id='1429'> -7.5690653e+04 </wgt>
<wgt id='1430'> -7.4293656e+04 </wgt>
<wgt id='1431'> -7.5063888e+04 </wgt>
<wgt id='1432'> -7.4873003e+04 </wgt>
<wgt id='1433'> -7.5449669e+04 </wgt>
<wgt id='1434'> -7.4746065e+04 </wgt>
<wgt id='1435'> -7.5065425e+04 </wgt>
<wgt id='1436'> -7.6005678e+04 </wgt>
<wgt id='1437'> -7.4848137e+04 </wgt>
<wgt id='1438'> -7.5221693e+04 </wgt>
<wgt id='1439'> -7.4873862e+04 </wgt>
<wgt id='1440'> -7.4839251e+04 </wgt>
<wgt id='1441'> -7.4908319e+04 </wgt>
<wgt id='1442'> -7.5289880e+04 </wgt>
<wgt id='1443'> -7.5316292e+04 </wgt>
<wgt id='1444'> -7.4640744e+04 </wgt>
<wgt id='1445'> -7.4817466e+04 </wgt>
<wgt id='1446'> -7.4298036e+04 </wgt>
<wgt id='1447'> -7.5182379e+04 </wgt>
<wgt id='1448'> -7.4975952e+04 </wgt>
<wgt id='1449'> -7.5113820e+04 </wgt>
<wgt id='1450'> -7.5153253e+04 </wgt>
<wgt id='1451'> -7.4966397e+04 </wgt>
<wgt id='1452'> -7.5143080e+04 </wgt>
<wgt id='1453'> -7.4784174e+04 </wgt>
<wgt id='1454'> -7.5488311e+04 </wgt>
<wgt id='1455'> -7.5062541e+04 </wgt>
<wgt id='1456'> -7.4927256e+04 </wgt>
<wgt id='1457'> -7.5087680e+04 </wgt>
<wgt id='1458'> -7.4953789e+04 </wgt>
<wgt id='1459'> -7.5023628e+04 </wgt>
<wgt id='1460'> -7.5251716e+04 </wgt>
<wgt id='1461'> -7.5056097e+04 </wgt>
<wgt id='1462'> -7.4924927e+04 </wgt>
<wgt id='1463'> -7.4896383e+04 </wgt>
<wgt id='1464'> -7.4964732e+04 </wgt>
<wgt id='1465'> -7.5097236e+04 </wgt>
<wgt id='1466'> -7.5118064e+04 </wgt>
<wgt id='1467'> -7.5033908e+04 </wgt>
<wgt id='1468'> -7.5020189e+04 </wgt>
<wgt id='1469'> -7.5079947e+04 </wgt>
<wgt id='1470'> -7.4906038e+04 </wgt>
<wgt id='1471'> -7.5156078e+04 </wgt>
<wgt id='1472'> -7.4989058e+04 </wgt>
<wgt id='1473'> -7.5004417e+04 </wgt>
<wgt id='1474'> -7.5001285e+04 </wgt>
<wgt id='1475'> -7.5042452e+04 </wgt>
<wgt id='1476'> -7.5179742e+04 </wgt>
<wgt id='1477'> -7.5067226e+04 </wgt>
<wgt id='1478'> -7.4985679e+04 </wgt>
<wgt id='1479'> -7.5111676e+04 </wgt>
<wgt id='1480'> -7.5066628e+04 </wgt>
<wgt id='1481'> -7.4998242e+04 </wgt>
<wgt id='1482'> -7.5690653e+04 </wgt>
<wgt id='1483'> -7.4293656e+04 </wgt>
<wgt id='1484'> -7.3883131e+04 </wgt>
<wgt id='1485'> -7.3108088e+04 </wgt>
<wgt id='1486'> -7.3039504e+04 </wgt>
<wgt id='1487'> -7.5251501e+04 </wgt>
<wgt id='1488'> -7.4848263e+04 </wgt>
<wgt id='1489'> -7.3650268e+04 </wgt>
<wgt id='1490'> -7.4099641e+04 </wgt>
<wgt id='1491'> -7.4576224e+04 </wgt>
<wgt id='1492'> -7.4908747e+04 </wgt>
<wgt id='1493'> -7.3811810e+04 </wgt>
<wgt id='1494'> -7.3887957e+04 </wgt>
<wgt id='1495'> -7.6014368e+04 </wgt>
<wgt id='1496'> -7.4697180e+04 </wgt>
<wgt id='1497'> -7.7347998e+04 </wgt>
<wgt id='1498'> -7.3391574e+04 </wgt>
<wgt id='1499'> -7.3503906e+04 </wgt>
<wgt id='1500'> -7.3690794e+04 </wgt>
<wgt id='1501'> -7.4110108e+04 </wgt>
<wgt id='1502'> -7.3534791e+04 </wgt>
<wgt id='1503'> -7.5183779e+04 </wgt>
<wgt id='1504'> -7.4472836e+04 </wgt>
<wgt id='1505'> -7.2369508e+04 </wgt>
<wgt id='1506'> -7.5789584e+04 </wgt>
<wgt id='1507'> -7.3406302e+04 </wgt>
<wgt id='1508'> -7.6215688e+04 </wgt>
<wgt id='1509'> -7.3082831e+04 </wgt>
<wgt id='1510'> -7.4518041e+04 </wgt>
<wgt id='1511'> -7.3358313e+04 </wgt>
<wgt id='1512'> -7.3707691e+04 </wgt>
<wgt id='1513'> -7.5060279e+04 </wgt>
<wgt id='1514'> -7.4478966e+04 </wgt>
<wgt id='1515'> -7.5237401e+04 </wgt>
<wgt id='1516'> -7.4017798e+04 </wgt>
<wgt id='1517'> -7.3154965e+04 </wgt>
<wgt id='1518'> -7.4243979e+04 </wgt>
<wgt id='1519'> -7.4198924e+04 </wgt>
<wgt id='1520'> -7.2416437e+04 </wgt>
<wgt id='1521'> -7.3558605e+04 </wgt>
<wgt id='1522'> -7.4364268e+04 </wgt>
<wgt id='1523'> -7.4669049e+04 </wgt>
<wgt id='1524'> -7.3144400e+04 </wgt>
<wgt id='1525'> -7.1974120e+04 </wgt>
<wgt id='1526'> -7.2148623e+04 </wgt>
<wgt id='1527'> -7.3838955e+04 </wgt>
<wgt id='1528'> -7.2854131e+04 </wgt>
<wgt id='1529'> -7.4026566e+04 </wgt>
<wgt id='1530'> -7.3517187e+04 </wgt>
<wgt id='1531'> -7.4611624e+04 </wgt>
<wgt id='1532'> -7.4222361e+04 </wgt>
<wgt id='1533'> -7.3122164e+04 </wgt>
<wgt id='1534'> -7.3870756e+04 </wgt>
<wgt id='1535'> -7.4779012e+04 </wgt>
<wgt id='1536'> -7.2775771e+04 </wgt>
<wgt id='1537'> -7.3427963e+04 </wgt>
<wgt id='1538'> -7.3941168e+04 </wgt>
<wgt id='1539'> -7.3621766e+04 </wgt>
<wgt id='1540'> -7.4327588e+04 </wgt>
<wgt id='1541'> -7.3306514e+04 </wgt>
<wgt id='1542'> -7.4690564e+04 </wgt>
<wgt id='1543'> -7.3518536e+04 </wgt>
<wgt id='1544'> -7.3264375e+04 </wgt>
<wgt id='1545'> -7.2381500e+04 </wgt>
<wgt id='1546'> -7.3651819e+04 </wgt>
<wgt id='1547'> -7.3339430e+04 </wgt>
<wgt id='1548'> -7.4047920e+04 </wgt>
<wgt id='1549'> -7.4592828e+04 </wgt>
<wgt id='1550'> -7.3314282e+04 </wgt>
<wgt id='1551'> -7.3751571e+04 </wgt>
<wgt id='1552'> -7.2901545e+04 </wgt>
<wgt id='1553'> -7.4299147e+04 </wgt>
<wgt id='1554'> -7.2880282e+04 </wgt>
<wgt id='1555'> -7.4919667e+04 </wgt>
<wgt id='1556'> -7.4583448e+04 </wgt>
<wgt id='1557'> -7.4312949e+04 </wgt>
<wgt id='1558'> -7.2506670e+04 </wgt>
<wgt id='1559'> -7.2904342e+04 </wgt>
<wgt id='1560'> -7.2549013e+04 </wgt>
<wgt id='1561'> -7.3691659e+04 </wgt>
<wgt id='1562'> -7.3906096e+04 </wgt>
<wgt id='1563'> -7.3965800e+04 </wgt>
<wgt id='1564'> -7.2781936e+04 </wgt>
<wgt id='1565'> -7.4135889e+04 </wgt>
<wgt id='1566'> -7.6070561e+04 </wgt>
<wgt id='1567'> -7.5014751e+04 </wgt>
<wgt id='1568'> -7.4006724e+04 </wgt>
<wgt id='1569'> -7.4074843e+04 </wgt>
<wgt id='1570'> -7.3413719e+04 </wgt>
<wgt id='1571'> -7.4011688e+04 </wgt>
<wgt id='1572'> -7.4052645e+04 </wgt>
<wgt id='1573'> -7.4542491e+04 </wgt>
<wgt id='1574'> -7.5000560e+04 </wgt>
<wgt id='1575'> -7.1931345e+04 </wgt>
<wgt id='1576'> -7.3114740e+04 </wgt>
<wgt id='1577'> -7.4430024e+04 </wgt>
<wgt id='1578'> -7.2836943e+04 </wgt>
<wgt id='1579'> -7.5254183e+04 </wgt>
<wgt id='1580'> -7.3322812e+04 </wgt>
<wgt id='1581'> -7.2633558e+04 </wgt>
<wgt id='1582'> -7.2716437e+04 </wgt>
<wgt id='1583'> -7.1810121e+04 </wgt>
<wgt id='1584'> -7.4608882e+04 </wgt>
<wgt id='1585'> -7.1870321e+04 </wgt>
<wgt id='1586'> -9.9481016e+04 </wgt>
<wgt id='1587'> -7.6011262e+04 </wgt>
<wgt id='1588'> -7.5690653e+04 </wgt>
<wgt id='1589'> -7.5515243e+04 </wgt>
<wgt id='1590'> -7.4854654e+04 </wgt>
<wgt id='1591'> -7.4293656e+04 </wgt>
<wgt id='1592'> -7.3512384e+04 </wgt>
<wgt id='1593'> -6.4326490e+04 </wgt>
<wgt id='1594'> -6.3316852e+04 </wgt>
<wgt id='1595'> -6.5064995e+04 </wgt>
<wgt id='1596'> -6.5894020e+04 </wgt>
<wgt id='1597'> -6.2094165e+04 </wgt>
<wgt id='1598'> -6.9504168e+04 </wgt>
<wgt id='1599'> -6.1462017e+04 </wgt>
<wgt id='1600'> -6.8753114e+04 </wgt>
<wgt id='1601'> -6.0924322e+04 </wgt>
<wgt id='1602'> -6.6002766e+04 </wgt>
<wgt id='1603'> -6.3068277e+04 </wgt>
<wgt id='1604'> -6.3398369e+04 </wgt>
<wgt id='1605'> -6.6394864e+04 </wgt>
<wgt id='1606'> -6.3176326e+04 </wgt>
<wgt id='1607'> -6.4638170e+04 </wgt>
<wgt id='1608'> -6.5659810e+04 </wgt>
<wgt id='1609'> -6.2326738e+04 </wgt>
<wgt id='1610'> -6.4941081e+04 </wgt>
<wgt id='1611'> -6.3729764e+04 </wgt>
<wgt id='1612'> -6.3898726e+04 </wgt>
<wgt id='1613'> -6.4726205e+04 </wgt>
<wgt id='1614'> -6.3242758e+04 </wgt>
<wgt id='1615'> -6.6403744e+04 </wgt>
<wgt id='1616'> -6.6480285e+04 </wgt>
<wgt id='1617'> -6.1771377e+04 </wgt>
<wgt id='1618'> -6.3795458e+04 </wgt>
<wgt id='1619'> -6.5990080e+04 </wgt>
<wgt id='1620'> -6.2254360e+04 </wgt>
<wgt id='1621'> -6.6964079e+04 </wgt>
<wgt id='1622'> -6.2847620e+04 </wgt>
<wgt id='1623'> -6.5149433e+04 </wgt>
<wgt id='1624'> -6.4123239e+04 </wgt>
<wgt id='1625'> -6.3891742e+04 </wgt>
<wgt id='1626'> -6.4172764e+04 </wgt>
<wgt id='1627'> -6.4061434e+04 </wgt>
<wgt id='1628'> -6.2083745e+04 </wgt>
<wgt id='1629'> -6.6620968e+04 </wgt>
<wgt id='1630'> -6.0888574e+04 </wgt>
<wgt id='1631'> -6.8741609e+04 </wgt>
<wgt id='1632'> -6.0806846e+04 </wgt>
<wgt id='1633'> -6.9638386e+04 </wgt>
<wgt id='1634'> -6.3871672e+04 </wgt>
<wgt id='1635'> -6.4841874e+04 </wgt>
<wgt id='1636'> -6.8364230e+04 </wgt>
<wgt id='1637'> -6.2059183e+04 </wgt>
<wgt id='1638'> -6.2735846e+04 </wgt>
<wgt id='1639'> -6.4982069e+04 </wgt>
<wgt id='1640'> -6.1482578e+04 </wgt>
<wgt id='1641'> -6.6812404e+04 </wgt>
<wgt id='1642'> -6.8734975e+04 </wgt>
<wgt id='1643'> -6.1533622e+04 </wgt>
<wgt id='1644'> -6.0773213e+04 </wgt>
<wgt id='1645'> -6.9262600e+04 </wgt>
<wgt id='1646'> -6.6265020e+04 </wgt>
<wgt id='1647'> -6.2697777e+04 </wgt>
<wgt id='1648'> -6.4156389e+04 </wgt>
<wgt id='1649'> -6.4358987e+04 </wgt>
<wgt id='1650'> -6.4227647e+04 </wgt>
<wgt id='1651'> -6.4331530e+04 </wgt>
<wgt id='1652'> -6.5533750e+04 </wgt>
<wgt id='1653'> -6.4977923e+04 </wgt>
<wgt id='1654'> -6.3596748e+04 </wgt>
<wgt id='1655'> -6.2825289e+04 </wgt>
<wgt id='1656'> -7.3741914e+04 </wgt>
<wgt id='1657'> -7.3914613e+04 </wgt>
<wgt id='1658'> -7.2996213e+04 </wgt>
<wgt id='1659'> -7.4005042e+04 </wgt>
<wgt id='1660'> -7.3566413e+04 </wgt>
<wgt id='1661'> -7.3140450e+04 </wgt>
<wgt id='1662'> -7.3601455e+04 </wgt>
<wgt id='1663'> -7.3637360e+04 </wgt>
<wgt id='1664'> -7.2964801e+04 </wgt>
<wgt id='1665'> -7.3036631e+04 </wgt>
<wgt id='1666'> -7.3868289e+04 </wgt>
<wgt id='1667'> -7.4456702e+04 </wgt>
<wgt id='1668'> -7.3307942e+04 </wgt>
<wgt id='1669'> -7.4163821e+04 </wgt>
<wgt id='1670'> -7.3543929e+04 </wgt>
<wgt id='1671'> -7.3259634e+04 </wgt>
<wgt id='1672'> -7.4710223e+04 </wgt>
<wgt id='1673'> -7.3490923e+04 </wgt>
<wgt id='1674'> -7.4074561e+04 </wgt>
<wgt id='1675'> -7.2437874e+04 </wgt>
<wgt id='1676'> -7.4453796e+04 </wgt>
<wgt id='1677'> -7.5459393e+04 </wgt>
<wgt id='1678'> -7.2080783e+04 </wgt>
<wgt id='1679'> -7.2956575e+04 </wgt>
<wgt id='1680'> -7.5287295e+04 </wgt>
<wgt id='1681'> -7.4023762e+04 </wgt>
<wgt id='1682'> -7.3038736e+04 </wgt>
<wgt id='1683'> -7.2731770e+04 </wgt>
<wgt id='1684'> -7.4574435e+04 </wgt>
<wgt id='1685'> -7.2772605e+04 </wgt>
<wgt id='1686'> -7.4301576e+04 </wgt>
<wgt id='1687'> -7.1731007e+04 </wgt>
<wgt id='1688'> -7.6587833e+04 </wgt>
<wgt id='1689'> -7.2025926e+04 </wgt>
<wgt id='1690'> -7.5734527e+04 </wgt>
<wgt id='1691'> -7.2091294e+04 </wgt>
<wgt id='1692'> -7.5269529e+04 </wgt>
<wgt id='1693'> -6.8591891e+04 </wgt>
<wgt id='1694'> -8.0978811e+04 </wgt>
<wgt id='1695'> -7.3580195e+04 </wgt>
<wgt id='1696'> -7.3317642e+04 </wgt>
<wgt id='1697'> -7.2449319e+04 </wgt>
<wgt id='1698'> -7.5339322e+04 </wgt>
<wgt id='1699'> -7.4894925e+04 </wgt>
<wgt id='1700'> -7.1370505e+04 </wgt>
<wgt id='1701'> -7.7856742e+04 </wgt>
<wgt id='1702'> -7.0819648e+04 </wgt>
<wgt id='1703'> -7.4955338e+04 </wgt>
<wgt id='1704'> -7.2933308e+04 </wgt>
<wgt id='1705'> -7.2359536e+04 </wgt>
<wgt id='1706'> -7.5172148e+04 </wgt>
<wgt id='1707'> -7.3041746e+04 </wgt>
<wgt id='1708'> -7.4282924e+04 </wgt>
<wgt id='1709'> -7.5786478e+04 </wgt>
<wgt id='1710'> -7.1676702e+04 </wgt>
<wgt id='1711'> -7.4307425e+04 </wgt>
<wgt id='1712'> -7.2964564e+04 </wgt>
<wgt id='1713'> -7.2978732e+04 </wgt>
<wgt id='1714'> -7.3925146e+04 </wgt>
<wgt id='1715'> -6.9384103e+04 </wgt>
<wgt id='1716'> -6.5682551e+04 </wgt>
<wgt id='1717'> -7.3073373e+04 </wgt>
<wgt id='1718'> -7.2865130e+04 </wgt>
<wgt id='1719'> -7.3340496e+04 </wgt>
<wgt id='1720'> -7.3362685e+04 </wgt>
<wgt id='1721'> -7.2809103e+04 </wgt>
<wgt id='1722'> -7.3728474e+04 </wgt>
<wgt id='1723'> -7.1999166e+04 </wgt>
<wgt id='1724'> -7.3336804e+04 </wgt>
<wgt id='1725'> -7.2858999e+04 </wgt>
<wgt id='1726'> -7.3153819e+04 </wgt>
<wgt id='1727'> -7.2990359e+04 </wgt>
<wgt id='1728'> -7.3916836e+04 </wgt>
<wgt id='1729'> -7.2254765e+04 </wgt>
<wgt id='1730'> -7.2316024e+04 </wgt>
<wgt id='1731'> -7.3611614e+04 </wgt>
<wgt id='1732'> -7.2476414e+04 </wgt>
<wgt id='1733'> -7.2476414e+04 </wgt>
<wgt id='1734'> -7.3629987e+04 </wgt>
<wgt id='1735'> -7.2697306e+04 </wgt>
<wgt id='1736'> -7.3549075e+04 </wgt>
<wgt id='1737'> -7.2416316e+04 </wgt>
<wgt id='1738'> -7.1939919e+04 </wgt>
<wgt id='1739'> -7.4999264e+04 </wgt>
<wgt id='1740'> -7.3192959e+04 </wgt>
<wgt id='1741'> -7.2793929e+04 </wgt>
<wgt id='1742'> -7.3387027e+04 </wgt>
<wgt id='1743'> -7.2742022e+04 </wgt>
<wgt id='1744'> -7.3196226e+04 </wgt>
<wgt id='1745'> -7.2741505e+04 </wgt>
<wgt id='1746'> -7.1617451e+04 </wgt>
<wgt id='1747'> -7.3935228e+04 </wgt>
<wgt id='1748'> -7.3422685e+04 </wgt>
<wgt id='1749'> -7.2035769e+04 </wgt>
<wgt id='1750'> -7.2764114e+04 </wgt>
<wgt id='1751'> -7.3406769e+04 </wgt>
<wgt id='1752'> -7.3351215e+04 </wgt>
<wgt id='1753'> -7.2696186e+04 </wgt>
<wgt id='1754'> -7.2861696e+04 </wgt>
<wgt id='1755'> -7.3193646e+04 </wgt>
<wgt id='1756'> -7.2533207e+04 </wgt>
<wgt id='1757'> -7.4490244e+04 </wgt>
<wgt id='1758'> -7.2826304e+04 </wgt>
<wgt id='1759'> -7.3267312e+04 </wgt>
<wgt id='1760'> -7.3123155e+04 </wgt>
<wgt id='1761'> -7.3087225e+04 </wgt>
<wgt id='1762'> -7.2465246e+04 </wgt>
<wgt id='1763'> -7.4458441e+04 </wgt>
<wgt id='1764'> -7.3116294e+04 </wgt>
<wgt id='1765'> -7.2881315e+04 </wgt>
<wgt id='1766'> -7.3122548e+04 </wgt>
<wgt id='1767'> -7.3029136e+04 </wgt>
<wgt id='1768'> -7.2738220e+04 </wgt>
<wgt id='1769'> -7.3369855e+04 </wgt>
<wgt id='1770'> -7.3613083e+04 </wgt>
<wgt id='1771'> -7.2558749e+04 </wgt>
<wgt id='1772'> -7.2883326e+04 </wgt>
<wgt id='1773'> -7.3526289e+04 </wgt>
<wgt id='1774'> -7.3924007e+04 </wgt>
<wgt id='1775'> -7.2485722e+04 </wgt>
<wgt id='1776'> -7.3216880e+04 </wgt>
<wgt id='1777'> -7.3029222e+04 </wgt>
<wgt id='1778'> -7.2813375e+04 </wgt>
<wgt id='1779'> -7.3093267e+04 </wgt>
<wgt id='1780'> -7.1195814e+04 </wgt>
<wgt id='1781'> -7.3625339e+04 </wgt>
<wgt id='1782'> -7.3073373e+04 </wgt>
<wgt id='1783'> -7.3093276e+04 </wgt>
<wgt id='1784'> -7.1558186e+04 </wgt>
<wgt id='1785'> -7.1549141e+04 </wgt>
<wgt id='1786'> -7.5294370e+04 </wgt>
<wgt id='1787'> -7.1735703e+04 </wgt>
<wgt id='1788'> -7.1027619e+04 </wgt>
<wgt id='1789'> -7.1492236e+04 </wgt>
<wgt id='1790'> -7.1386078e+04 </wgt>
<wgt id='1791'> -7.1487731e+04 </wgt>
<wgt id='1792'> -7.2401021e+04 </wgt>
<wgt id='1793'> -7.1713737e+04 </wgt>
<wgt id='1794'> -7.1439603e+04 </wgt>
<wgt id='1795'> -7.2994287e+04 </wgt>
<wgt id='1796'> -7.1970581e+04 </wgt>
<wgt id='1797'> -7.3957745e+04 </wgt>
<wgt id='1798'> -7.1529803e+04 </wgt>
<wgt id='1799'> -7.1246544e+04 </wgt>
<wgt id='1800'> -7.1126549e+04 </wgt>
<wgt id='1801'> -7.1157533e+04 </wgt>
<wgt id='1802'> -7.2535180e+04 </wgt>
<wgt id='1803'> -7.1101824e+04 </wgt>
<wgt id='1804'> -7.1809554e+04 </wgt>
<wgt id='1805'> -7.1477358e+04 </wgt>
<wgt id='1806'> -7.1355187e+04 </wgt>
<wgt id='1807'> -7.1577334e+04 </wgt>
<wgt id='1808'> -7.1344273e+04 </wgt>
<wgt id='1809'> -7.1715376e+04 </wgt>
<wgt id='1810'> -7.1590451e+04 </wgt>
<wgt id='1811'> -7.1468187e+04 </wgt>
<wgt id='1812'> -7.2044421e+04 </wgt>
<wgt id='1813'> -7.1508574e+04 </wgt>
<wgt id='1814'> -7.1764662e+04 </wgt>
<wgt id='1815'> -7.1506812e+04 </wgt>
<wgt id='1816'> -7.1523199e+04 </wgt>
<wgt id='1817'> -7.1234921e+04 </wgt>
<wgt id='1818'> -7.1800513e+04 </wgt>
<wgt id='1819'> -7.1275272e+04 </wgt>
<wgt id='1820'> -7.1298081e+04 </wgt>
<wgt id='1821'> -7.1318094e+04 </wgt>
<wgt id='1822'> -7.1613188e+04 </wgt>
<wgt id='1823'> -6.9535665e+04 </wgt>
<wgt id='1824'> -7.1720945e+04 </wgt>
<wgt id='1825'> -7.1608497e+04 </wgt>
<wgt id='1826'> -7.1361260e+04 </wgt>
<wgt id='1827'> -6.9318039e+04 </wgt>
<wgt id='1828'> -6.9369431e+04 </wgt>
<wgt id='1829'> -6.9266816e+04 </wgt>
<wgt id='1830'> -6.9318703e+04 </wgt>
<wgt id='1831'> -6.9317369e+04 </wgt>
<wgt id='1832'> -6.9412541e+04 </wgt>
<wgt id='1833'> -6.9223406e+04 </wgt>
<wgt id='1834'> -6.9366704e+04 </wgt>
<wgt id='1835'> -6.9265348e+04 </wgt>
<wgt id='1836'> -6.9355639e+04 </wgt>
<wgt id='1837'> -6.9279953e+04 </wgt>
<wgt id='1838'> -6.9448548e+04 </wgt>
<wgt id='1839'> -6.9186831e+04 </wgt>
<wgt id='1840'> -6.9165561e+04 </wgt>
<wgt id='1841'> -6.9470852e+04 </wgt>
<wgt id='1842'> -6.9278278e+04 </wgt>
<wgt id='1843'> -6.9359578e+04 </wgt>
<wgt id='1844'> -6.9304802e+04 </wgt>
<wgt id='1845'> -6.9320844e+04 </wgt>
<wgt id='1846'> -6.9206923e+04 </wgt>
<wgt id='1847'> -6.9423521e+04 </wgt>
<wgt id='1848'> -6.9118636e+04 </wgt>
<wgt id='1849'> -6.9443220e+04 </wgt>
<wgt id='1850'> -6.9369690e+04 </wgt>
<wgt id='1851'> -6.9270252e+04 </wgt>
<wgt id='1852'> -6.9173045e+04 </wgt>
<wgt id='1853'> -6.9352034e+04 </wgt>
<wgt id='1854'> -6.9368340e+04 </wgt>
<wgt id='1855'> -6.9317489e+04 </wgt>
<wgt id='1856'> -7.1161210e+04 </wgt>
<wgt id='1857'> -7.1161406e+04 </wgt>
<wgt id='1858'> -7.1155896e+04 </wgt>
<wgt id='1859'> -7.1111962e+04 </wgt>
<wgt id='1860'> -7.1165551e+04 </wgt>
<wgt id='1861'> -7.1454829e+04 </wgt>
<wgt id='1862'> -7.1477534e+04 </wgt>
<wgt id='1863'> -7.0788326e+04 </wgt>
<wgt id='1864'> -7.1297014e+04 </wgt>
<wgt id='1865'> -7.1236081e+04 </wgt>
<wgt id='1866'> -7.1281604e+04 </wgt>
<wgt id='1867'> -7.1171557e+04 </wgt>
<wgt id='1868'> -7.1629646e+04 </wgt>
<wgt id='1869'> -7.1723105e+04 </wgt>
<wgt id='1870'> -7.1641185e+04 </wgt>
<wgt id='1871'> -7.1252220e+04 </wgt>
<wgt id='1872'> -7.1326488e+04 </wgt>
<wgt id='1873'> -7.1238566e+04 </wgt>
<wgt id='1874'> -7.1113734e+04 </wgt>
<wgt id='1875'> -7.1108669e+04 </wgt>
<wgt id='1876'> -7.1050579e+04 </wgt>
<wgt id='1877'> -7.1857774e+04 </wgt>
<wgt id='1878'> -7.1101333e+04 </wgt>
<wgt id='1879'> -7.1289787e+04 </wgt>
<wgt id='1880'> -7.1388226e+04 </wgt>
<wgt id='1881'> -7.1579703e+04 </wgt>
<wgt id='1882'> -7.1059873e+04 </wgt>
<wgt id='1883'> -7.0996961e+04 </wgt>
<wgt id='1884'> -7.1348079e+04 </wgt>
<wgt id='1885'> -7.0435157e+04 </wgt>
<wgt id='1886'> -3.4908910e+04 </wgt>
<wgt id='1887'> -5.4397111e+04 </wgt>
<wgt id='1888'> -7.5969286e+04 </wgt>
<wgt id='1889'> -7.8985151e+04 </wgt>
</rwgt>
</event>
<event npLO=" -1 " npNLO=" 0 ">
 5      0 +7.4519530e+04 2.33589410e+01 7.55820760e-03 1.21673760e-01
        2 -1    0    0  501    0 +0.0000000000e+00 +0.0000000000e+00 +1.7776082451e+02 1.7776082451e+02 0.0000000000e+00 0.0000e+00 -1.0000e+00
       -1 -1    0    0    0  501 +0.0000000000e+00 +0.0000000000e+00 -7.6456664117e+00 7.6456664117e+00 0.0000000000e+00 0.0000e+00 1.0000e+00
       24  2    1    2    0    0 +0.0000000000e+00 +0.0000000000e+00 +1.7011515810e+02 1.8540649092e+02 7.3731946001e+01 0.0000e+00 0.0000e+00
      -13  1    3    3    0    0 +5.0108448801e+00 -3.6503232135e+01 +8.1972251085e+01 8.9872378797e+01 0.0000000000e+00 0.0000e+00 1.0000e+00
       14  1    3    3    0    0 -5.0108448801e+00 +3.6503232135e+01 +8.8142907013e+01 9.5534112124e+01 0.0000000000e+00 0.0000e+00 -1.0000e+00
#aMCatNLO 1  0  0  2  1 0.13587478E+02 0.00000000E+00 -9  5  0 0.00000000E+00 0.00000000E+00 0.00000000E+00 0.00000000E+00 0.00000000E+00
<rwgt>
<wgt id='1001'> +7.4519530e+04 </wgt>
<wgt id='1002'> +7.4206477e+04 </wgt>
<wgt id='1003'> +7.4903803e+04 </wgt>
<wgt id='1004'> +7.3214136e+04 </wgt>
<wgt id='1005'> +7.3902578e+04 </wgt>
<wgt id='1006'> +7.2345669e+04 </wgt>
<wgt id='1007'> +7.3926387e+04 </wgt>
<wgt id='1008'> +7.2736388e+04 </wgt>
<wgt id='1009'> +7.5407836e+04 </wgt>
<wgt id='1010'> +7.4519530e+04 </wgt>
<wgt id='1011'> +7.4393380e+04 </wgt>
<wgt id='1012'> +7.4669874e+04 </wgt>
<wgt id='1013'> +7.4079985e+04 </wgt>
<wgt id='1014'> +7.4809379e+04 </wgt>
<wgt id='1015'> +7.4003722e+04 </wgt>
<wgt id='1016'> +7.4680048e+04 </wgt>
<wgt id='1017'> +7.4711235e+04 </wgt>
<wgt id='1018'> +7.4405832e+04 </wgt>
<wgt id='1019'> +7.4495629e+04 </wgt>
<wgt id='1020'> +7.4103510e+04 </wgt>
<wgt id='1021'> +7.4392701e+04 </wgt>
<wgt id='1022'> +7.4714284e+04 </wgt>
<wgt id='1023'> +7.4829725e+04 </wgt>
<wgt id='1024'> +7.4588436e+04 </wgt>
<wgt id='1025'> +7.5201751e+04 </wgt>
<wgt id='1026'> +7.4351917e+04 </wgt>
<wgt id='1027'> +7.4617793e+04 </wgt>
<wgt id='1028'> +7.4182509e+04 </wgt>
<wgt id='1029'> +7.4692904e+04 </wgt>
<wgt id='1030'> +7.5372453e+04 </wgt>
<wgt id='1031'> +7.4626495e+04 </wgt>
<wgt id='1032'> +7.4681609e+04 </wgt>
<wgt id='1033'> +7.4123948e+04 </wgt>
<wgt id='1034'> +7.4539347e+04 </wgt>
<wgt id='1035'> +7.4200659e+04 </wgt>
<wgt id='1036'> +7.4164286e+04 </wgt>
<wgt id='1037'> +7.5476457e+04 </wgt>
<wgt id='1038'> +7.4876319e+04 </wgt>
<wgt id='1039'> +7.4384374e+04 </wgt>
<wgt id='1040'> +7.4369549e+04 </wgt>
<wgt id='1041'> +7.4731583e+04 </wgt>
<wgt id='1042'> +7.4737081e+04 </wgt>
<wgt id='1043'> +7.4359852e+04 </wgt>
<wgt id='1044'> +7.4467774e+04 </wgt>
<wgt id='1045'> +7.4638288e+04 </wgt>
<wgt id='1046'> +7.4467111e+04 </wgt>
<wgt id='1047'> +7.4339973e+04 </wgt>
<wgt id='1048'> +7.4745626e+04 </wgt>
<wgt id='1049'> +7.4591775e+04 </wgt>
<wgt id='1050'> +7.4467545e+04 </wgt>
<wgt id='1051'> +7.4744971e+04 </wgt>
<wgt id='1052'> +7.4610099e+04 </wgt>
<wgt id='1053'> +7.4176576e+04 </wgt>
<wgt id='1054'> +7.4496422e+04 </wgt>
<wgt id='1055'> +7.4532484e+04 </wgt>
<wgt id='1056'> +7.4767779e+04 </wgt>
<wgt id='1057'> +7.4374762e+04 </wgt>
<wgt id='1058'> +7.4599177e+04 </wgt>
<wgt id='1059'> +7.4466566e+04 </wgt>
<wgt id='1060'> +7.4547059e+04 </wgt>
<wgt id='1061'> +7.4478983e+04 </wgt>
<wgt id='1062'> +7.4647838e+04 </wgt>
<wgt id='1063'> +7.4402933e+04 </wgt>
<wgt id='1064'> +7.4501975e+04 </wgt>
<wgt id='1065'> +7.4497048e+04 </wgt>
<wgt id='1066'> +7.4712089e+04 </wgt>
<wgt id='1067'> +7.4542271e+04 </wgt>
<wgt id='1068'> +7.4538448e+04 </wgt>
<wgt id='1069'> +7.4488133e+04 </wgt>
<wgt id='1070'> +7.4563548e+04 </wgt>
<wgt id='1071'> +7.4492159e+04 </wgt>
<wgt id='1072'> +7.4454805e+04 </wgt>
<wgt id='1073'> +7.4597023e+04 </wgt>
<wgt id='1074'> +7.4531124e+04 </wgt>
<wgt id='1075'> +7.4491453e+04 </wgt>
<wgt id='1076'> +7.4553308e+04 </wgt>
<wgt id='1077'> +7.4555768e+04 </wgt>
<wgt id='1078'> +7.4619578e+04 </wgt>
<wgt id='1079'> +7.4607832e+04 </wgt>
<wgt id='1080'> +7.4391413e+04 </wgt>
<wgt id='1081'> +7.4511752e+04 </wgt>
<wgt id='1082'> +7.4595140e+04 </wgt>
<wgt id='1083'> +7.4500645e+04 </wgt>
<wgt id='1084'> +7.4624747e+04 </wgt>
<wgt id='1085'> +7.4486840e+04 </wgt>
<wgt id='1086'> +7.4491055e+04 </wgt>
<wgt id='1087'> +7.4565118e+04 </wgt>
<wgt id='1088'> +7.4506354e+04 </wgt>
<wgt id='1089'> +7.4467185e+04 </wgt>
<wgt id='1090'> +7.4600209e+04 </wgt>
<wgt id='1091'> +7.4540122e+04 </wgt>
<wgt id='1092'> +7.4500236e+04 </wgt>
<wgt id='1093'> +7.4575751e+04 </wgt>
<wgt id='1094'> +7.4544705e+04 </wgt>
<wgt id='1095'> +7.4570919e+04 </wgt>
<wgt id='1096'> +7.4517080e+04 </wgt>
<wgt id='1097'> +7.4583953e+04 </wgt>
<wgt id='1098'> +7.4490185e+04 </wgt>
<wgt id='1099'> +7.4539021e+04 </wgt>
<wgt id='1100'> +7.4533272e+04 </wgt>
<wgt id='1101'> +7.4511542e+04 </wgt>
<wgt id='1102'> +7.4527483e+04 </wgt>
<wgt id='1103'> +7.4554262e+04 </wgt>
<wgt id='1104'> +7.4532556e+04 </wgt>
<wgt id='1105'> +7.4513732e+04 </wgt>
<wgt id='1106'> +7.4517599e+04 </wgt>
<wgt id='1107'> +7.4538692e+04 </wgt>
<wgt id='1108'> +7.4532382e+04 </wgt>
<wgt id='1109'> +7.4510234e+04 </wgt>
<wgt id='1110'> +7.4519520e+04 </wgt>
<wgt id='1111'> +7.3323306e+04 </wgt>
<wgt id='1112'> +7.6032869e+04 </wgt>
<wgt id='1113'> +7.4519520e+04 </wgt>
<wgt id='1114'> +7.7682773e+04 </wgt>
<wgt id='1115'> +7.4628194e+04 </wgt>
<wgt id='1116'> +6.7715039e+04 </wgt>
<wgt id='1117'> +7.3308574e+04 </wgt>
<wgt id='1118'> +7.3332338e+04 </wgt>
<wgt id='1119'> +7.7980804e+04 </wgt>
<wgt id='1120'> +7.5399401e+04 </wgt>
<wgt id='1121'> +7.0624660e+04 </wgt>
<wgt id='1122'> +7.2552193e+04 </wgt>
<wgt id='1123'> +7.4323034e+04 </wgt>
<wgt id='1124'> +7.3922932e+04 </wgt>
<wgt id='1125'> +7.3292986e+04 </wgt>
<wgt id='1126'> +7.4859310e+04 </wgt>
<wgt id='1127'> +7.2485261e+04 </wgt>
<wgt id='1128'> +7.5202556e+04 </wgt>
<wgt id='1129'> +7.5673599e+04 </wgt>
<wgt id='1130'> +7.8284278e+04 </wgt>
<wgt id='1131'> +7.4264993e+04 </wgt>
<wgt id='1132'> +7.5241467e+04 </wgt>
<wgt id='1133'> +7.1874154e+04 </wgt>
<wgt id='1134'> +7.2813914e+04 </wgt>
<wgt id='1135'> +7.5092440e+04 </wgt>
<wgt id='1136'> +7.5832152e+04 </wgt>
<wgt id='1137'> +7.4159016e+04 </wgt>
<wgt id='1138'> +7.3511441e+04 </wgt>
<wgt id='1139'> +7.3033157e+04 </wgt>
<wgt id='1140'> +8.0533044e+04 </wgt>
<wgt id='1141'> +7.4731903e+04 </wgt>
<wgt id='1142'> +7.8316651e+04 </wgt>
<wgt id='1143'> +7.7158919e+04 </wgt>
<wgt id='1144'> +7.2808527e+04 </wgt>
<wgt id='1145'> +7.3962008e+04 </wgt>
<wgt id='1146'> +7.5292844e+04 </wgt>
<wgt id='1147'> +7.3766709e+04 </wgt>
<wgt id='1148'> +7.5285275e+04 </wgt>
<wgt id='1149'> +7.3474982e+04 </wgt>
<wgt id='1150'> +7.3682290e+04 </wgt>
<wgt id='1151'> +7.4574014e+04 </wgt>
<wgt id='1152'> +7.2861802e+04 </wgt>
<wgt id='1153'> +7.3015830e+04 </wgt>
<wgt id='1154'> +7.4363364e+04 </wgt>
<wgt id='1155'> +7.6896702e+04 </wgt>
<wgt id='1156'> +7.6501893e+04 </wgt>
<wgt id='1157'> +7.6206589e+04 </wgt>
<wgt id='1158'> +7.3618227e+04 </wgt>
<wgt id='1159'> +7.6262392e+04 </wgt>
<wgt id='1160'> +7.6436095e+04 </wgt>
<wgt id='1161'> +7.0091104e+04 </wgt>
<wgt id='1162'> +7.7754727e+04 </wgt>
<wgt id='1163'> +7.7116621e+04 </wgt>
<wgt id='1164'> +7.2869132e+04 </wgt>
<wgt id='1165'> +7.3063962e+04 </wgt>
<wgt id='1166'> +7.7213288e+04 </wgt>
<wgt id='1167'> +7.7426102e+04 </wgt>
<wgt id='1168'> +7.0729934e+04 </wgt>
<wgt id='1169'> +7.4447834e+04 </wgt>
<wgt id='1170'> +7.6574623e+04 </wgt>
<wgt id='1171'> +7.3224567e+04 </wgt>
<wgt id='1172'> +7.5680390e+04 </wgt>
<wgt id='1173'> +7.2403579e+04 </wgt>
<wgt id='1174'> +7.6102395e+04 </wgt>
<wgt id='1175'> +7.4662117e+04 </wgt>
<wgt id='1176'> +7.7181982e+04 </wgt>
<wgt id='1177'> +7.0066935e+04 </wgt>
<wgt id='1178'> +7.5332831e+04 </wgt>
<wgt id='1179'> +7.3713895e+04 </wgt>
<wgt id='1180'> +7.4053157e+04 </wgt>
<wgt id='1181'> +7.6325150e+04 </wgt>
<wgt id='1182'> +7.6414357e+04 </wgt>
<wgt id='1183'> +7.5804271e+04 </wgt>
<wgt id='1184'> +7.3089953e+04 </wgt>
<wgt id='1185'> +7.7776741e+04 </wgt>
<wgt id='1186'> +6.9403231e+04 </wgt>
<wgt id='1187'> +7.2312673e+04 </wgt>
<wgt id='1188'> +7.3649743e+04 </wgt>
<wgt id='1189'> +7.5469893e+04 </wgt>
<wgt id='1190'> +7.3019047e+04 </wgt>
<wgt id='1191'> +7.5685617e+04 </wgt>
<wgt id='1192'> +7.4348343e+04 </wgt>
<wgt id='1193'> +7.5133179e+04 </wgt>
<wgt id='1194'> +7.5098860e+04 </wgt>
<wgt id='1195'> +7.5673599e+04 </wgt>
<wgt id='1196'> +7.4396261e+04 </wgt>
<wgt id='1197'> +7.3740498e+04 </wgt>
<wgt id='1198'> +7.3506875e+04 </wgt>
<wgt id='1199'> +7.8334952e+04 </wgt>
<wgt id='1200'> +7.4621111e+04 </wgt>
<wgt id='1201'> +7.6664290e+04 </wgt>
<wgt id='1202'> +7.1200845e+04 </wgt>
<wgt id='1203'> +7.4386614e+04 </wgt>
<wgt id='1204'> +7.4534402e+04 </wgt>
<wgt id='1205'> +7.3730549e+04 </wgt>
<wgt id='1206'> +7.4423932e+04 </wgt>
<wgt id='1207'> +7.7299009e+04 </wgt>
<wgt id='1208'> +7.3776724e+04 </wgt>
<wgt id='1209'> +7.4465387e+04 </wgt>
<wgt id='1210'> +7.3644258e+04 </wgt>
<wgt id='1211'> +7.2758636e+04 </wgt>
<wgt id='1212'> +7.1247499e+04 </wgt>
<wgt id='1213'> +7.3473747e+04 </wgt>
<wgt id='1214'> +7.4622866e+04 </wgt>
<wgt id='1215'> +6.9249640e+04 </wgt>
<wgt id='1216'> +7.0120076e+04 </wgt>
<wgt id='1217'> +7.0798817e+04 </wgt>
<wgt id='1218'> +7.2101708e+04 </wgt>
<wgt id='1219'> +7.4386539e+04 </wgt>
<wgt id='1220'> +7.5394852e+04 </wgt>
<wgt id='1221'> +7.7585823e+04 </wgt>
<wgt id='1222'> +7.8515946e+04 </wgt>
<wgt id='1223'> +7.2294211e+04 </wgt>
<wgt id='1224'> +7.2289303e+04 </wgt>
<wgt id='1225'> +7.2545630e+04 </wgt>
<wgt id='1226'> +7.2056741e+04 </wgt>
<wgt id='1227'> +7.2893630e+04 </wgt>
<wgt id='1228'> +7.2377593e+04 </wgt>
<wgt id='1229'> +7.1849359e+04 </wgt>
<wgt id='1230'> +7.2607308e+04 </wgt>
<wgt id='1231'> +7.2694772e+04 </wgt>
<wgt id='1232'> +7.2679510e+04 </wgt>
<wgt id='1233'> +7.1825976e+04 </wgt>
<wgt id='1234'> +7.2038299e+04 </wgt>
<wgt id='1235'> +7.2409392e+04 </wgt>
<wgt id='1236'> +7.2888446e+04 </wgt>
<wgt id='1237'> +7.2166187e+04 </wgt>
<wgt id='1238'> +7.1981341e+04 </wgt>
<wgt id='1239'> +7.3019107e+04 </wgt>
<wgt id='1240'> +7.2014419e+04 </wgt>
<wgt id='1241'> +7.2665402e+04 </wgt>
<wgt id='1242'> +7.2453708e+04 </wgt>
<wgt id='1243'> +7.2170716e+04 </wgt>
<wgt id='1244'> +7.2566938e+04 </wgt>
<wgt id='1245'> +7.2155002e+04 </wgt>
<wgt id='1246'> +7.1710410e+04 </wgt>
<wgt id='1247'> +7.3022780e+04 </wgt>
<wgt id='1248'> +7.2173658e+04 </wgt>
<wgt id='1249'> +7.2413286e+04 </wgt>
<wgt id='1250'> +7.2263327e+04 </wgt>
<wgt id='1251'> +7.2191082e+04 </wgt>
<wgt id='1252'> +7.2952790e+04 </wgt>
<wgt id='1253'> +7.2421754e+04 </wgt>
<wgt id='1254'> +7.2052316e+04 </wgt>
<wgt id='1255'> +7.2436441e+04 </wgt>
<wgt id='1256'> +7.2156275e+04 </wgt>
<wgt id='1257'> +7.2412260e+04 </wgt>
<wgt id='1258'> +7.2445076e+04 </wgt>
<wgt id='1259'> +7.2332071e+04 </wgt>
<wgt id='1260'> +7.2201868e+04 </wgt>
<wgt id='1261'> +7.2295564e+04 </wgt>
<wgt id='1262'> +7.2210713e+04 </wgt>
<wgt id='1263'> +7.2292780e+04 </wgt>
<wgt id='1264'> +7.2197985e+04 </wgt>
<wgt id='1265'> +7.2188875e+04 </wgt>
<wgt id='1266'> +7.2237031e+04 </wgt>
<wgt id='1267'> +7.2288165e+04 </wgt>
<wgt id='1268'> +7.2257866e+04 </wgt>
<wgt id='1269'> +7.2276859e+04 </wgt>
<wgt id='1270'> +7.2233128e+04 </wgt>
<wgt id='1271'> +7.2397751e+04 </wgt>
<wgt id='1272'> +7.2503983e+04 </wgt>
<wgt id='1273'> +7.2191928e+04 </wgt>
<wgt id='1274'> +7.2161612e+04 </wgt>
<wgt id='1275'> +7.2335755e+04 </wgt>
<wgt id='1276'> +7.2236252e+04 </wgt>
<wgt id='1277'> +7.2359830e+04 </wgt>
<wgt id='1278'> +7.2333525e+04 </wgt>
<wgt id='1279'> +7.2520645e+04 </wgt>
<wgt id='1280'> +7.2210730e+04 </wgt>
<wgt id='1281'> +7.2192161e+04 </wgt>
<wgt id='1282'> +7.2265992e+04 </wgt>
<wgt id='1283'> +7.2389691e+04 </wgt>
<wgt id='1284'> +7.2256377e+04 </wgt>
<wgt id='1285'> +7.2296837e+04 </wgt>
<wgt id='1286'> +7.2298266e+04 </wgt>
<wgt id='1287'> +7.2399398e+04 </wgt>
<wgt id='1288'> +7.2323044e+04 </wgt>
<wgt id='1289'> +7.2261614e+04 </wgt>
<wgt id='1290'> +7.2289545e+04 </wgt>
<wgt id='1291'> +7.2315200e+04 </wgt>
<wgt id='1292'> +7.2257588e+04 </wgt>
<wgt id='1293'> +7.2205611e+04 </wgt>
<wgt id='1294'> +7.2313304e+04 </wgt>
<wgt id='1295'> +7.2382316e+04 </wgt>
<wgt id='1296'> +7.2207193e+04 </wgt>
<wgt id='1297'> +7.2274996e+04 </wgt>
<wgt id='1298'> +7.2193493e+04 </wgt>
<wgt id='1299'> +7.2275206e+04 </wgt>
<wgt id='1300'> +7.2286105e+04 </wgt>
<wgt id='1301'> +7.2295365e+04 </wgt>
<wgt id='1302'> +7.2270342e+04 </wgt>
<wgt id='1303'> +7.2353823e+04 </wgt>
<wgt id='1304'> +7.2338872e+04 </wgt>
<wgt id='1305'> +7.2317910e+04 </wgt>
<wgt id='1306'> +7.2342318e+04 </wgt>
<wgt id='1307'> +7.2317910e+04 </wgt>
<wgt id='1308'> +7.2347710e+04 </wgt>
<wgt id='1309'> +7.2252040e+04 </wgt>
<wgt id='1310'> +7.2300837e+04 </wgt>
<wgt id='1311'> +7.2257757e+04 </wgt>
<wgt id='1312'> +7.2287467e+04 </wgt>
<wgt id='1313'> +7.2309939e+04 </wgt>
<wgt id='1314'> +7.2318333e+04 </wgt>
<wgt id='1315'> +7.2329310e+04 </wgt>
<wgt id='1316'> +7.2343143e+04 </wgt>
<wgt id='1317'> +7.2262473e+04 </wgt>
<wgt id='1318'> +7.2333927e+04 </wgt>
<wgt id='1319'> +7.2298068e+04 </wgt>
<wgt id='1320'> +7.2337621e+04 </wgt>
<wgt id='1321'> +7.2226037e+04 </wgt>
<wgt id='1322'> +7.2325265e+04 </wgt>
<wgt id='1323'> +7.2289608e+04 </wgt>
<wgt id='1324'> +7.1020497e+04 </wgt>
<wgt id='1325'> +7.3704072e+04 </wgt>
<wgt id='1326'> +7.2137285e+04 </wgt>
<wgt id='1327'> +6.6962625e+04 </wgt>
<wgt id='1328'> +7.4729112e+04 </wgt>
<wgt id='1329'> +7.4031344e+04 </wgt>
<wgt id='1330'> +7.5217158e+04 </wgt>
<wgt id='1331'> +7.5057639e+04 </wgt>
<wgt id='1332'> +7.4744135e+04 </wgt>
<wgt id='1333'> +7.4975676e+04 </wgt>
<wgt id='1334'> +7.1860819e+04 </wgt>
<wgt id='1335'> +7.4659954e+04 </wgt>
<wgt id='1336'> +7.5366055e+04 </wgt>
<wgt id='1337'> +7.4430365e+04 </wgt>
<wgt id='1338'> +7.5815708e+04 </wgt>
<wgt id='1339'> +7.5432678e+04 </wgt>
<wgt id='1340'> +7.2732843e+04 </wgt>
<wgt id='1341'> +7.4295404e+04 </wgt>
<wgt id='1342'> +7.5741891e+04 </wgt>
<wgt id='1343'> +7.6256017e+04 </wgt>
<wgt id='1344'> +7.5084599e+04 </wgt>
<wgt id='1345'> +7.5949564e+04 </wgt>
<wgt id='1346'> +7.6185232e+04 </wgt>
<wgt id='1347'> +7.5487198e+04 </wgt>
<wgt id='1348'> +7.3453108e+04 </wgt>
<wgt id='1349'> +7.5627243e+04 </wgt>
<wgt id='1350'> +7.3645616e+04 </wgt>
<wgt id='1351'> +7.4396120e+04 </wgt>
<wgt id='1352'> +7.6262082e+04 </wgt>
<wgt id='1353'> +7.6728848e+04 </wgt>
<wgt id='1354'> +7.4812396e+04 </wgt>
<wgt id='1355'> +7.5082641e+04 </wgt>
<wgt id='1356'> +7.4130510e+04 </wgt>
<wgt id='1357'> +7.4319957e+04 </wgt>
<wgt id='1358'> +7.4896959e+04 </wgt>
<wgt id='1359'> +7.4737149e+04 </wgt>
<wgt id='1360'> +7.5828056e+04 </wgt>
<wgt id='1361'> +7.6639876e+04 </wgt>
<wgt id='1362'> +7.6335688e+04 </wgt>
<wgt id='1363'> +7.5392930e+04 </wgt>
<wgt id='1364'> +7.5717814e+04 </wgt>
<wgt id='1365'> +7.4755362e+04 </wgt>
<wgt id='1366'> +7.4464201e+04 </wgt>
<wgt id='1367'> +7.5798959e+04 </wgt>
<wgt id='1368'> +7.4045942e+04 </wgt>
<wgt id='1369'> +7.3571046e+04 </wgt>
<wgt id='1370'> +7.3998070e+04 </wgt>
<wgt id='1371'> +7.5129679e+04 </wgt>
<wgt id='1372'> +7.5951630e+04 </wgt>
<wgt id='1373'> +7.4674607e+04 </wgt>
<wgt id='1374'> +7.5141737e+04 </wgt>
<wgt id='1375'> +7.4698449e+04 </wgt>
<wgt id='1376'> +7.4545160e+04 </wgt>
<wgt id='1377'> +7.4416938e+04 </wgt>
<wgt id='1378'> +7.2229615e+04 </wgt>
<wgt id='1379'> +7.5250794e+04 </wgt>
<wgt id='1380'> +7.5692608e+04 </wgt>
<wgt id='1381'> +7.4907974e+04 </wgt>
<wgt id='1382'> +7.3328707e+04 </wgt>
<wgt id='1383'> +7.4554685e+04 </wgt>
<wgt id='1384'> +7.5267391e+04 </wgt>
<wgt id='1385'> +7.3217684e+04 </wgt>
<wgt id='1386'> +7.5689725e+04 </wgt>
<wgt id='1387'> +7.3175135e+04 </wgt>
<wgt id='1388'> +7.5263882e+04 </wgt>
<wgt id='1389'> +7.4638645e+04 </wgt>
<wgt id='1390'> +7.3311987e+04 </wgt>
<wgt id='1391'> +7.4327976e+04 </wgt>
<wgt id='1392'> +7.3924890e+04 </wgt>
<wgt id='1393'> +7.2488130e+04 </wgt>
<wgt id='1394'> +7.4755362e+04 </wgt>
<wgt id='1395'> +7.6299400e+04 </wgt>
<wgt id='1396'> +7.2153588e+04 </wgt>
<wgt id='1397'> +7.5450870e+04 </wgt>
<wgt id='1398'> +7.5573817e+04 </wgt>
<wgt id='1399'> +7.5114889e+04 </wgt>
<wgt id='1400'> +7.6131556e+04 </wgt>
<wgt id='1401'> +7.5433401e+04 </wgt>
<wgt id='1402'> +7.5055935e+04 </wgt>
<wgt id='1403'> +7.5198367e+04 </wgt>
<wgt id='1404'> +7.5104694e+04 </wgt>
<wgt id='1405'> +7.3433705e+04 </wgt>
<wgt id='1406'> +7.2794317e+04 </wgt>
<wgt id='1407'> +7.5808213e+04 </wgt>
<wgt id='1408'> +7.5069040e+04 </wgt>
<wgt id='1409'> +7.2852849e+04 </wgt>
<wgt id='1410'> +7.4887808e+04 </wgt>
<wgt id='1411'> +7.5397418e+04 </wgt>
<wgt id='1412'> +7.5240104e+04 </wgt>
<wgt id='1413'> +7.6097573e+04 </wgt>
<wgt id='1414'> +7.3298755e+04 </wgt>
<wgt id='1415'> +7.3476907e+04 </wgt>
<wgt id='1416'> +7.4577494e+04 </wgt>
<wgt id='1417'> +7.4654209e+04 </wgt>
<wgt id='1418'> +7.6173957e+04 </wgt>
<wgt id='1419'> +7.4181611e+04 </wgt>
<wgt id='1420'> +7.3145492e+04 </wgt>
<wgt id='1421'> +7.5344330e+04 </wgt>
<wgt id='1422'> +7.4419328e+04 </wgt>
<wgt id='1423'> +7.4981449e+04 </wgt>
<wgt id='1424'> +7.2020223e+04 </wgt>
<wgt id='1425'> +7.3792463e+04 </wgt>
<wgt id='1426'> +7.3967482e+04 </wgt>
<wgt id='1427'> +7.5437678e+04 </wgt>
<wgt id='1428'> +7.5656739e+04 </wgt>
<wgt id='1429'> +7.4359217e+04 </wgt>
<wgt id='1430'> +7.4989727e+04 </wgt>
<wgt id='1431'> +7.4652768e+04 </wgt>
<wgt id='1432'> +7.4918728e+04 </wgt>
<wgt id='1433'> +7.4574254e+04 </wgt>
<wgt id='1434'> +7.4578963e+04 </wgt>
<wgt id='1435'> +7.4379581e+04 </wgt>
<wgt id='1436'> +7.4258562e+04 </wgt>
<wgt id='1437'> +7.5233247e+04 </wgt>
<wgt id='1438'> +7.4983072e+04 </wgt>
<wgt id='1439'> +7.4327621e+04 </wgt>
<wgt id='1440'> +7.4638117e+04 </wgt>
<wgt id='1441'> +7.4450309e+04 </wgt>
<wgt id='1442'> +7.4877444e+04 </wgt>
<wgt id='1443'> +7.4589787e+04 </wgt>
<wgt id='1444'> +7.4417379e+04 </wgt>
<wgt id='1445'> +7.4746978e+04 </wgt>
<wgt id='1446'> +7.4443336e+04 </wgt>
<wgt id='1447'> +7.4440503e+04 </wgt>
<wgt id='1448'> +7.4784497e+04 </wgt>
<wgt id='1449'> +7.4702225e+04 </wgt>
<wgt id='1450'> +7.4601645e+04 </wgt>
<wgt id='1451'> +7.4553249e+04 </wgt>
<wgt id='1452'> +7.4537436e+04 </wgt>
<wgt id='1453'> +7.4639662e+04 </wgt>
<wgt id='1454'> +7.4534938e+04 </wgt>
<wgt id='1455'> +7.4771002e+04 </wgt>
<wgt id='1456'> +7.4683395e+04 </wgt>
<wgt id='1457'> +7.4683567e+04 </wgt>
<wgt id='1458'> +7.4485625e+04 </wgt>
<wgt id='1459'> +7.4534683e+04 </wgt>
<wgt id='1460'> +7.4716313e+04 </wgt>
<wgt id='1461'> +7.4635228e+04 </wgt>
<wgt id='1462'> +7.4634531e+04 </wgt>
<wgt id='1463'> +7.4674682e+04 </wgt>
<wgt id='1464'> +7.4603046e+04 </wgt>
<wgt id='1465'> +7.4693199e+04 </wgt>
<wgt id='1466'> +7.4623580e+04 </wgt>
<wgt id='1467'> +7.4704678e+04 </wgt>
<wgt id='1468'> +7.4634255e+04 </wgt>
<wgt id='1469'> +7.4634693e+04 </wgt>
<wgt id='1470'> +7.4629037e+04 </wgt>
<wgt id='1471'> +7.4602495e+04 </wgt>
<wgt id='1472'> +7.4655474e+04 </wgt>
<wgt id='1473'> +7.4704564e+04 </wgt>
<wgt id='1474'> +7.4658321e+04 </wgt>
<wgt id='1475'> +7.4656848e+04 </wgt>
<wgt id='1476'> +7.4648630e+04 </wgt>
<wgt id='1477'> +7.4638910e+04 </wgt>
<wgt id='1478'> +7.4631323e+04 </wgt>
<wgt id='1479'> +7.4656128e+04 </wgt>
<wgt id='1480'> +7.4646550e+04 </wgt>
<wgt id='1481'> +7.4676245e+04 </wgt>
<wgt id='1482'> +7.4359217e+04 </wgt>
<wgt id='1483'> +7.4989727e+04 </wgt>
<wgt id='1484'> +7.5904494e+04 </wgt>
<wgt id='1485'> +7.6418915e+04 </wgt>
<wgt id='1486'> +7.6186240e+04 </wgt>
<wgt id='1487'> +7.6155978e+04 </wgt>
<wgt id='1488'> +7.6328954e+04 </wgt>
<wgt id='1489'> +7.6486346e+04 </wgt>
<wgt id='1490'> +7.4360697e+04 </wgt>
<wgt id='1491'> +7.4218928e+04 </wgt>
<wgt id='1492'> +7.4999525e+04 </wgt>
<wgt id='1493'> +7.6451021e+04 </wgt>
<wgt id='1494'> +7.5430303e+04 </wgt>
<wgt id='1495'> +7.4996080e+04 </wgt>
<wgt id='1496'> +7.5296771e+04 </wgt>
<wgt id='1497'> +7.4228616e+04 </wgt>
<wgt id='1498'> +7.7230131e+04 </wgt>
<wgt id='1499'> +7.6555055e+04 </wgt>
<wgt id='1500'> +7.4381647e+04 </wgt>
<wgt id='1501'> +7.5511325e+04 </wgt>
<wgt id='1502'> +7.7100983e+04 </wgt>
<wgt id='1503'> +7.4681976e+04 </wgt>
<wgt id='1504'> +7.5890118e+04 </wgt>
<wgt id='1505'> +7.5806054e+04 </wgt>
<wgt id='1506'> +7.6535149e+04 </wgt>
<wgt id='1507'> +7.5724120e+04 </wgt>
<wgt id='1508'> +7.4359069e+04 </wgt>
<wgt id='1509'> +7.4615084e+04 </wgt>
<wgt id='1510'> +7.4304553e+04 </wgt>
<wgt id='1511'> +7.4550706e+04 </wgt>
<wgt id='1512'> +7.5612707e+04 </wgt>
<wgt id='1513'> +7.5241476e+04 </wgt>
<wgt id='1514'> +7.6584422e+04 </wgt>
<wgt id='1515'> +7.5591071e+04 </wgt>
<wgt id='1516'> +7.4920592e+04 </wgt>
<wgt id='1517'> +7.6380089e+04 </wgt>
<wgt id='1518'> +7.6795762e+04 </wgt>
<wgt id='1519'> +7.6490712e+04 </wgt>
<wgt id='1520'> +7.4176617e+04 </wgt>
<wgt id='1521'> +7.5115907e+04 </wgt>
<wgt id='1522'> +7.6117906e+04 </wgt>
<wgt id='1523'> +7.5940226e+04 </wgt>
<wgt id='1524'> +7.6914063e+04 </wgt>
<wgt id='1525'> +7.6802952e+04 </wgt>
<wgt id='1526'> +7.6131945e+04 </wgt>
<wgt id='1527'> +7.6447138e+04 </wgt>
<wgt id='1528'> +7.5994160e+04 </wgt>
<wgt id='1529'> +7.6362713e+04 </wgt>
<wgt id='1530'> +7.5568033e+04 </wgt>
<wgt id='1531'> +7.5067812e+04 </wgt>
<wgt id='1532'> +7.4648370e+04 </wgt>
<wgt id='1533'> +7.5771343e+04 </wgt>
<wgt id='1534'> +7.5729355e+04 </wgt>
<wgt id='1535'> +7.5103115e+04 </wgt>
<wgt id='1536'> +7.6907838e+04 </wgt>
<wgt id='1537'> +7.4343979e+04 </wgt>
<wgt id='1538'> +7.7614915e+04 </wgt>
<wgt id='1539'> +7.6736939e+04 </wgt>
<wgt id='1540'> +7.6207717e+04 </wgt>
<wgt id='1541'> +7.6801275e+04 </wgt>
<wgt id='1542'> +7.6874080e+04 </wgt>
<wgt id='1543'> +7.6370586e+04 </wgt>
<wgt id='1544'> +7.7154053e+04 </wgt>
<wgt id='1545'> +7.6343173e+04 </wgt>
<wgt id='1546'> +7.6340744e+04 </wgt>
<wgt id='1547'> +7.7032640e+04 </wgt>
<wgt id='1548'> +7.5617377e+04 </wgt>
<wgt id='1549'> +7.6492706e+04 </wgt>
<wgt id='1550'> +7.6027028e+04 </wgt>
<wgt id='1551'> +7.7099452e+04 </wgt>
<wgt id='1552'> +7.6446944e+04 </wgt>
<wgt id='1553'> +7.7238133e+04 </wgt>
<wgt id='1554'> +7.2918742e+04 </wgt>
<wgt id='1555'> +7.6482767e+04 </wgt>
<wgt id='1556'> +7.6816200e+04 </wgt>
<wgt id='1557'> +7.5152142e+04 </wgt>
<wgt id='1558'> +7.6748576e+04 </wgt>
<wgt id='1559'> +7.7145201e+04 </wgt>
<wgt id='1560'> +7.6838841e+04 </wgt>
<wgt id='1561'> +7.5931802e+04 </wgt>
<wgt id='1562'> +7.6182619e+04 </wgt>
<wgt id='1563'> +7.6100190e+04 </wgt>
<wgt id='1564'> +7.5156421e+04 </wgt>
<wgt id='1565'> +7.4578971e+04 </wgt>
<wgt id='1566'> +7.6217580e+04 </wgt>
<wgt id='1567'> +7.7697240e+04 </wgt>
<wgt id='1568'> +7.6278106e+04 </wgt>
<wgt id='1569'> +7.7288665e+04 </wgt>
<wgt id='1570'> +7.7252557e+04 </wgt>
<wgt id='1571'> +7.7255765e+04 </wgt>
<wgt id='1572'> +7.5152991e+04 </wgt>
<wgt id='1573'> +7.6887836e+04 </wgt>
<wgt id='1574'> +7.4345562e+04 </wgt>
<wgt id='1575'> +7.5226943e+04 </wgt>
<wgt id='1576'> +7.7063823e+04 </wgt>
<wgt id='1577'> +7.5277845e+04 </wgt>
<wgt id='1578'> +7.5800432e+04 </wgt>
<wgt id='1579'> +7.5891309e+04 </wgt>
<wgt id='1580'> +7.6824099e+04 </wgt>
<wgt id='1581'> +7.6245223e+04 </wgt>
<wgt id='1582'> +7.6941695e+04 </wgt>
<wgt id='1583'> +7.3148162e+04 </wgt>
<wgt id='1584'> +7.3555991e+04 </wgt>
<wgt id='1585'> +7.1912877e+04 </wgt>
<wgt id='1586'> +6.2654930e+04 </wgt>
<wgt id='1587'> +7.3742608e+04 </wgt>
<wgt id='1588'> +7.4359217e+04 </wgt>
<wgt id='1589'> +7.4291983e+04 </wgt>
<wgt id='1590'> +7.4538673e+04 </wgt>
<wgt id='1591'> +7.4989727e+04 </wgt>
<wgt id='1592'> +7.5194369e+04 </wgt>
<wgt id='1593'> +7.4439458e+04 </wgt>
<wgt id='1594'> +7.4288866e+04 </wgt>
<wgt id='1595'> +7.3203113e+04 </wgt>
<wgt id='1596'> +7.2474234e+04 </wgt>
<wgt id='1597'> +7.6814704e+04 </wgt>
<wgt id='1598'> +7.2736817e+04 </wgt>
<wgt id='1599'> +7.5760516e+04 </wgt>
<wgt id='1600'> +7.1543285e+04 </wgt>
<wgt id='1601'> +7.7080760e+04 </wgt>
<wgt id='1602'> +7.3858679e+04 </wgt>
<wgt id='1603'> +7.5111270e+04 </wgt>
<wgt id='1604'> +7.4996829e+04 </wgt>
<wgt id='1605'> +7.4254880e+04 </wgt>
<wgt id='1606'> +7.4702191e+04 </wgt>
<wgt id='1607'> +7.3044658e+04 </wgt>
<wgt id='1608'> +7.2728533e+04 </wgt>
<wgt id='1609'> +7.5387335e+04 </wgt>
<wgt id='1610'> +7.2843796e+04 </wgt>
<wgt id='1611'> +7.5524957e+04 </wgt>
<wgt id='1612'> +7.6205098e+04 </wgt>
<wgt id='1613'> +7.0935958e+04 </wgt>
<wgt id='1614'> +7.4180858e+04 </wgt>
<wgt id='1615'> +7.4832449e+04 </wgt>
<wgt id='1616'> +7.3178650e+04 </wgt>
<wgt id='1617'> +7.5311826e+04 </wgt>
<wgt id='1618'> +7.4835556e+04 </wgt>
<wgt id='1619'> +7.3577974e+04 </wgt>
<wgt id='1620'> +7.4846112e+04 </wgt>
<wgt id='1621'> +7.3948371e+04 </wgt>
<wgt id='1622'> +7.4743515e+04 </wgt>
<wgt id='1623'> +7.3449182e+04 </wgt>
<wgt id='1624'> +7.4635993e+04 </wgt>
<wgt id='1625'> +7.3131125e+04 </wgt>
<wgt id='1626'> +7.3345155e+04 </wgt>
<wgt id='1627'> +7.5082251e+04 </wgt>
<wgt id='1628'> +7.6574210e+04 </wgt>
<wgt id='1629'> +7.3213055e+04 </wgt>
<wgt id='1630'> +7.5813858e+04 </wgt>
<wgt id='1631'> +7.2497620e+04 </wgt>
<wgt id='1632'> +7.2436975e+04 </wgt>
<wgt id='1633'> +7.5950226e+04 </wgt>
<wgt id='1634'> +7.5807514e+04 </wgt>
<wgt id='1635'> +7.3011645e+04 </wgt>
<wgt id='1636'> +7.3638373e+04 </wgt>
<wgt id='1637'> +7.5374576e+04 </wgt>
<wgt id='1638'> +7.3788352e+04 </wgt>
<wgt id='1639'> +7.4672850e+04 </wgt>
<wgt id='1640'> +7.6586174e+04 </wgt>
<wgt id='1641'> +7.2660099e+04 </wgt>
<wgt id='1642'> +7.4018819e+04 </wgt>
<wgt id='1643'> +7.4443641e+04 </wgt>
<wgt id='1644'> +7.4759930e+04 </wgt>
<wgt id='1645'> +7.3059661e+04 </wgt>
<wgt id='1646'> +7.4437828e+04 </wgt>
<wgt id='1647'> +7.4690814e+04 </wgt>
<wgt id='1648'> +7.5212702e+04 </wgt>
<wgt id='1649'> +7.4561317e+04 </wgt>
<wgt id='1650'> +7.5096195e+04 </wgt>
<wgt id='1651'> +7.3513886e+04 </wgt>
<wgt id='1652'> +7.3320146e+04 </wgt>
<wgt id='1653'> +7.3861096e+04 </wgt>
<wgt id='1654'> +7.5053127e+04 </wgt>
<wgt id='1655'> +7.5700996e+04 </wgt>
<wgt id='1656'> +7.5425427e+04 </wgt>
<wgt id='1657'> +7.4745377e+04 </wgt>
<wgt id='1658'> +7.5093365e+04 </wgt>
<wgt id='1659'> +7.3976396e+04 </wgt>
<wgt id='1660'> +7.6597774e+04 </wgt>
<wgt id='1661'> +7.6563911e+04 </wgt>
<wgt id='1662'> +7.4042459e+04 </wgt>
<wgt id='1663'> +7.4749149e+04 </wgt>
<wgt id='1664'> +7.4864190e+04 </wgt>
<wgt id='1665'> +7.4386220e+04 </wgt>
<wgt id='1666'> +7.5410146e+04 </wgt>
<wgt id='1667'> +7.4245565e+04 </wgt>
<wgt id='1668'> +7.6251288e+04 </wgt>
<wgt id='1669'> +7.5766327e+04 </wgt>
<wgt id='1670'> +7.4577436e+04 </wgt>
<wgt id='1671'> +7.5581385e+04 </wgt>
<wgt id='1672'> +7.5245903e+04 </wgt>
<wgt id='1673'> +7.6448598e+04 </wgt>
<wgt id='1674'> +7.4760100e+04 </wgt>
<wgt id='1675'> +7.6382898e+04 </wgt>
<wgt id='1676'> +7.4719541e+04 </wgt>
<wgt id='1677'> +7.4218755e+04 </wgt>
<wgt id='1678'> +7.6451788e+04 </wgt>
<wgt id='1679'> +7.5567813e+04 </wgt>
<wgt id='1680'> +7.6036512e+04 </wgt>
<wgt id='1681'> +7.4615627e+04 </wgt>
<wgt id='1682'> +7.5610361e+04 </wgt>
<wgt id='1683'> +7.6830878e+04 </wgt>
<wgt id='1684'> +7.4196725e+04 </wgt>
<wgt id='1685'> +7.6629295e+04 </wgt>
<wgt id='1686'> +7.3903378e+04 </wgt>
<wgt id='1687'> +7.6571170e+04 </wgt>
<wgt id='1688'> +7.3602922e+04 </wgt>
<wgt id='1689'> +7.6096321e+04 </wgt>
<wgt id='1690'> +7.5075714e+04 </wgt>
<wgt id='1691'> +7.5438386e+04 </wgt>
<wgt id='1692'> +7.5081563e+04 </wgt>
<wgt id='1693'> +7.6838814e+04 </wgt>
<wgt id='1694'> +7.4481479e+04 </wgt>
<wgt id='1695'> +7.5124024e+04 </wgt>
<wgt id='1696'> +7.5481513e+04 </wgt>
<wgt id='1697'> +7.6889047e+04 </wgt>
<wgt id='1698'> +7.4259130e+04 </wgt>
<wgt id='1699'> +7.3343435e+04 </wgt>
<wgt id='1700'> +7.8186968e+04 </wgt>
<wgt id='1701'> +7.5400768e+04 </wgt>
<wgt id='1702'> +7.5523179e+04 </wgt>
<wgt id='1703'> +7.5656045e+04 </wgt>
<wgt id='1704'> +7.5754817e+04 </wgt>
<wgt id='1705'> +7.4658170e+04 </wgt>
<wgt id='1706'> +7.5985842e+04 </wgt>
<wgt id='1707'> +7.3888466e+04 </wgt>
<wgt id='1708'> +7.6579085e+04 </wgt>
<wgt id='1709'> +7.5211750e+04 </wgt>
<wgt id='1710'> +7.5980907e+04 </wgt>
<wgt id='1711'> +7.3819283e+04 </wgt>
<wgt id='1712'> +7.6509440e+04 </wgt>
<wgt id='1713'> +7.5597514e+04 </wgt>
<wgt id='1714'> +7.5109217e+04 </wgt>
<wgt id='1715'> +7.2840247e+04 </wgt>
<wgt id='1716'> +7.5807199e+04 </wgt>
<wgt id='1717'> +7.0605162e+04 </wgt>
<wgt id='1718'> +7.0758665e+04 </wgt>
<wgt id='1719'> +7.0406113e+04 </wgt>
<wgt id='1720'> +7.0415374e+04 </wgt>
<wgt id='1721'> +7.0778763e+04 </wgt>
<wgt id='1722'> +7.0403639e+04 </wgt>
<wgt id='1723'> +7.0935838e+04 </wgt>
<wgt id='1724'> +7.0941531e+04 </wgt>
<wgt id='1725'> +7.0332134e+04 </wgt>
<wgt id='1726'> +7.0378642e+04 </wgt>
<wgt id='1727'> +7.0838363e+04 </wgt>
<wgt id='1728'> +6.9611564e+04 </wgt>
<wgt id='1729'> +7.1572485e+04 </wgt>
<wgt id='1730'> +7.0958638e+04 </wgt>
<wgt id='1731'> +7.0354027e+04 </wgt>
<wgt id='1732'> +7.1093464e+04 </wgt>
<wgt id='1733'> +7.1093464e+04 </wgt>
<wgt id='1734'> +7.0453139e+04 </wgt>
<wgt id='1735'> +7.0702774e+04 </wgt>
<wgt id='1736'> +7.0524450e+04 </wgt>
<wgt id='1737'> +7.0719397e+04 </wgt>
<wgt id='1738'> +7.1119916e+04 </wgt>
<wgt id='1739'> +6.9683384e+04 </wgt>
<wgt id='1740'> +7.0492265e+04 </wgt>
<wgt id='1741'> +7.0873530e+04 </wgt>
<wgt id='1742'> +7.0806065e+04 </wgt>
<wgt id='1743'> +7.0372102e+04 </wgt>
<wgt id='1744'> +7.0381979e+04 </wgt>
<wgt id='1745'> +7.1213261e+04 </wgt>
<wgt id='1746'> +7.0622717e+04 </wgt>
<wgt id='1747'> +7.0562134e+04 </wgt>
<wgt id='1748'> +7.0660493e+04 </wgt>
<wgt id='1749'> +7.0298269e+04 </wgt>
<wgt id='1750'> +7.0549047e+04 </wgt>
<wgt id='1751'> +7.0663793e+04 </wgt>
<wgt id='1752'> +7.0205562e+04 </wgt>
<wgt id='1753'> +7.1135973e+04 </wgt>
<wgt id='1754'> +7.0434778e+04 </wgt>
<wgt id='1755'> +7.0690153e+04 </wgt>
<wgt id='1756'> +7.0186472e+04 </wgt>
<wgt id='1757'> +7.1652877e+04 </wgt>
<wgt id='1758'> +7.1295356e+04 </wgt>
<wgt id='1759'> +6.9770711e+04 </wgt>
<wgt id='1760'> +7.1750155e+04 </wgt>
<wgt id='1761'> +6.9620567e+04 </wgt>
<wgt id='1762'> +7.0661067e+04 </wgt>
<wgt id='1763'> +7.0205604e+04 </wgt>
<wgt id='1764'> +7.0406026e+04 </wgt>
<wgt id='1765'> +7.1503464e+04 </wgt>
<wgt id='1766'> +7.0483357e+04 </wgt>
<wgt id='1767'> +7.0841404e+04 </wgt>
<wgt id='1768'> +7.0423513e+04 </wgt>
<wgt id='1769'> +7.0790654e+04 </wgt>
<wgt id='1770'> +7.0442519e+04 </wgt>
<wgt id='1771'> +7.0789644e+04 </wgt>
<wgt id='1772'> +7.0983405e+04 </wgt>
<wgt id='1773'> +7.0301154e+04 </wgt>
<wgt id='1774'> +7.0112174e+04 </wgt>
<wgt id='1775'> +7.0929901e+04 </wgt>
<wgt id='1776'> +7.0673556e+04 </wgt>
<wgt id='1777'> +7.0593562e+04 </wgt>
<wgt id='1778'> +7.0266136e+04 </wgt>
<wgt id='1779'> +7.0725716e+04 </wgt>
<wgt id='1780'> +7.1490008e+04 </wgt>
<wgt id='1781'> +7.0774261e+04 </wgt>
<wgt id='1782'> +7.0605162e+04 </wgt>
<wgt id='1783'> +7.0570772e+04 </wgt>
<wgt id='1784'> +7.2893612e+04 </wgt>
<wgt id='1785'> +7.3036324e+04 </wgt>
<wgt id='1786'> +7.0957656e+04 </wgt>
<wgt id='1787'> +7.3006050e+04 </wgt>
<wgt id='1788'> +7.2814873e+04 </wgt>
<wgt id='1789'> +7.2975397e+04 </wgt>
<wgt id='1790'> +7.3364108e+04 </wgt>
<wgt id='1791'> +7.3115963e+04 </wgt>
<wgt id='1792'> +7.2472467e+04 </wgt>
<wgt id='1793'> +7.3256737e+04 </wgt>
<wgt id='1794'> +7.2988859e+04 </wgt>
<wgt id='1795'> +7.1705477e+04 </wgt>
<wgt id='1796'> +7.2905899e+04 </wgt>
<wgt id='1797'> +7.2697822e+04 </wgt>
<wgt id='1798'> +7.3132837e+04 </wgt>
<wgt id='1799'> +7.3358846e+04 </wgt>
<wgt id='1800'> +7.3011195e+04 </wgt>
<wgt id='1801'> +7.4533192e+04 </wgt>
<wgt id='1802'> +7.3556425e+04 </wgt>
<wgt id='1803'> +7.3131052e+04 </wgt>
<wgt id='1804'> +7.2821494e+04 </wgt>
<wgt id='1805'> +7.2997880e+04 </wgt>
<wgt id='1806'> +7.2864588e+04 </wgt>
<wgt id='1807'> +7.2936676e+04 </wgt>
<wgt id='1808'> +7.2955396e+04 </wgt>
<wgt id='1809'> +7.2992669e+04 </wgt>
<wgt id='1810'> +7.2797262e+04 </wgt>
<wgt id='1811'> +7.2790386e+04 </wgt>
<wgt id='1812'> +7.2911242e+04 </wgt>
<wgt id='1813'> +7.2653640e+04 </wgt>
<wgt id='1814'> +7.2958196e+04 </wgt>
<wgt id='1815'> +7.2763154e+04 </wgt>
<wgt id='1816'> +7.2941990e+04 </wgt>
<wgt id='1817'> +7.2759529e+04 </wgt>
<wgt id='1818'> +7.2862454e+04 </wgt>
<wgt id='1819'> +7.2597617e+04 </wgt>
<wgt id='1820'> +7.2893486e+04 </wgt>
<wgt id='1821'> +7.2907787e+04 </wgt>
<wgt id='1822'> +7.2600934e+04 </wgt>
<wgt id='1823'> +7.2963482e+04 </wgt>
<wgt id='1824'> +7.2898353e+04 </wgt>
<wgt id='1825'> +7.2174282e+04 </wgt>
<wgt id='1826'> +7.3824639e+04 </wgt>
<wgt id='1827'> +8.3179662e+04 </wgt>
<wgt id='1828'> +8.3449462e+04 </wgt>
<wgt id='1829'> +8.2939869e+04 </wgt>
<wgt id='1830'> +8.3149249e+04 </wgt>
<wgt id='1831'> +8.3238285e+04 </wgt>
<wgt id='1832'> +8.3272507e+04 </wgt>
<wgt id='1833'> +8.3114952e+04 </wgt>
<wgt id='1834'> +8.2739743e+04 </wgt>
<wgt id='1835'> +8.3623869e+04 </wgt>
<wgt id='1836'> +8.3474564e+04 </wgt>
<wgt id='1837'> +8.2900058e+04 </wgt>
<wgt id='1838'> +8.3166538e+04 </wgt>
<wgt id='1839'> +8.3219044e+04 </wgt>
<wgt id='1840'> +8.2997992e+04 </wgt>
<wgt id='1841'> +8.3397021e+04 </wgt>
<wgt id='1842'> +8.3231836e+04 </wgt>
<wgt id='1843'> +8.3392257e+04 </wgt>
<wgt id='1844'> +8.3146973e+04 </wgt>
<wgt id='1845'> +8.3219772e+04 </wgt>
<wgt id='1846'> +8.3292196e+04 </wgt>
<wgt id='1847'> +8.3084790e+04 </wgt>
<wgt id='1848'> +8.2601169e+04 </wgt>
<wgt id='1849'> +8.3674409e+04 </wgt>
<wgt id='1850'> +8.3157685e+04 </wgt>
<wgt id='1851'> +8.3239765e+04 </wgt>
<wgt id='1852'> +8.2984922e+04 </wgt>
<wgt id='1853'> +8.3227352e+04 </wgt>
<wgt id='1854'> +8.3075266e+04 </wgt>
<wgt id='1855'> +8.3274955e+04 </wgt>
<wgt id='1856'> +6.8106064e+04 </wgt>
<wgt id='1857'> +6.8090514e+04 </wgt>
<wgt id='1858'> +6.8081180e+04 </wgt>
<wgt id='1859'> +6.8110677e+04 </wgt>
<wgt id='1860'> +6.8109202e+04 </wgt>
<wgt id='1861'> +6.8274660e+04 </wgt>
<wgt id='1862'> +6.7703683e+04 </wgt>
<wgt id='1863'> +6.8206673e+04 </wgt>
<wgt id='1864'> +6.7963862e+04 </wgt>
<wgt id='1865'> +6.7838153e+04 </wgt>
<wgt id='1866'> +6.8414096e+04 </wgt>
<wgt id='1867'> +6.8127615e+04 </wgt>
<wgt id='1868'> +6.7913976e+04 </wgt>
<wgt id='1869'> +6.8166661e+04 </wgt>
<wgt id='1870'> +6.8060070e+04 </wgt>
<wgt id='1871'> +6.8257831e+04 </wgt>
<wgt id='1872'> +6.8014860e+04 </wgt>
<wgt id='1873'> +6.8077421e+04 </wgt>
<wgt id='1874'> +6.8342210e+04 </wgt>
<wgt id='1875'> +6.8219183e+04 </wgt>
<wgt id='1876'> +6.7928346e+04 </wgt>
<wgt id='1877'> +6.7900014e+04 </wgt>
<wgt id='1878'> +6.8074989e+04 </wgt>
<wgt id='1879'> +6.8255005e+04 </wgt>
<wgt id='1880'> +6.8178386e+04 </wgt>
<wgt id='1881'> +6.8262785e+04 </wgt>
<wgt id='1882'> +6.8124661e+04 </wgt>
<wgt id='1883'> +6.8353000e+04 </wgt>
<wgt id='1884'> +6.7835122e+04 </wgt>
<wgt id='1885'> +6.7748385e+04 </wgt>
<wgt id='1886'> +6.7028959e+04 </wgt>
<wgt id='1887'> +6.6255547e+04 </wgt>
<wgt id='1888'> +5.3518518e+04 </wgt>
<wgt id='1889'> +6.1823790e+04 </wgt>
</rwgt>
</event>
<event npLO=" -1 " npNLO=" 0 ">
 6      0 +7.4519530e+04 3.00000000e+01 7.55820760e-03 1.17962050e-01
       21 -1    0    0  501  502 +0.0000000000e+00 +0.0000000000e+00 +2.8159566394e+02 2.8159566394e+02 0.0000000000e+00 0.0000e+00 1.0000e+00
       -1 -1    0    0    0  501 +0.0000000000e+00 +0.0000000000e+00 -1.7799168370e+01 1.7799168370e+01 0.0000000000e+00 0.0000e+00 1.0000e+00
       24  2    1    2    0    0 -2.1025968414e+01 -4.0337259611e+01 +1.3700817925e+02 1.6469344770e+02 7.9268560434e+01 0.0000e+00 0.0000e+00
      -15  1    3    3    0    0 +5.3741757538e+00 -4.2281663103e+01 +2.4670404928e+01 4.9278873852e+01 1.7770000000e+00 0.0000e+00 1.0000e+00
       16  1    3    3    0    0 -2.6400144168e+01 +1.9444034922e+00 +1.1233777432e+02 1.1541457385e+02 0.0000000000e+00 0.0000e+00 -1.0000e+00
       -2  1    1    2    0  502 +2.1025968414e+01 +4.0337259611e+01 +1.2678831632e+02 1.3470138461e+02 0.0000000000e+00 0.0000e+00 1.0000e+00
#aMCatNLO 2  0  0  1  1 0.55315697E+02 0.00000000E+00 -9  5  0 0.00000000E+00 0.00000000E+00 0.00000000E+00 0.00000000E+00 0.00000000E+00
<rwgt>
<wgt id='1001'> +7.4519530e+04 </wgt>
<wgt id='1002'> +6.7472057e+04 </wgt>
<wgt id='1003'> +8.3260848e+04 </wgt>
<wgt id='1004'> +7.7513167e+04 </wgt>
<wgt id='1005'> +7.0182580e+04 </wgt>
<wgt id='1006'> +8.6605647e+04 </wgt>
<wgt id='1007'> +7.0465332e+04 </wgt>
<wgt id='1008'> +6.3801274e+04 </wgt>
<wgt id='1009'> +7.8731084e+04 </wgt>
<wgt id='1010'> +7.4519530e+04 </wgt>
<wgt id='1011'> +7.4595125e+04 </wgt>
<wgt id='1012'> +7.4330231e+04 </wgt>
<wgt id='1013'> +7.4205435e+04 </wgt>
<wgt id='1014'> +7.4798297e+04 </wgt>
<wgt id='1015'> +7.4439323e+04 </wgt>
<wgt id='1016'> +7.4808772e+04 </wgt>
<wgt id='1017'> +7.4534752e+04 </wgt>
<wgt id='1018'> +7.4590976e+04 </wgt>
<wgt id='1019'> +7.4425711e+04 </wgt>
<wgt id='1020'> +7.4327028e+04 </wgt>
<wgt id='1021'> +7.4317834e+04 </wgt>
<wgt id='1022'> +7.4687396e+04 </wgt>
<wgt id='1023'> +7.4793345e+04 </wgt>
<wgt id='1024'> +7.4722523e+04 </wgt>
<wgt id='1025'> +7.5080515e+04 </wgt>
<wgt id='1026'> +7.4451999e+04 </wgt>
<wgt id='1027'> +7.4589610e+04 </wgt>
<wgt id='1028'> +7.4259466e+04 </wgt>
<wgt id='1029'> +7.4845697e+04 </wgt>
<wgt id='1030'> +7.4912996e+04 </wgt>
<wgt id='1031'> +7.4360555e+04 </wgt>
<wgt id='1032'> +7.4343932e+04 </wgt>
<wgt id='1033'> +7.4251407e+04 </wgt>
<wgt id='1034'> +7.4565036e+04 </wgt>
<wgt id='1035'> +7.4304048e+04 </wgt>
<wgt id='1036'> +7.4334997e+04 </wgt>
<wgt id='1037'> +7.4686016e+04 </wgt>
<wgt id='1038'> +7.4824543e+04 </wgt>
<wgt id='1039'> +7.4215603e+04 </wgt>
<wgt id='1040'> +7.4336479e+04 </wgt>
<wgt id='1041'> +7.4460598e+04 </wgt>
<wgt id='1042'> +7.4652266e+04 </wgt>
<wgt id='1043'> +7.4366685e+04 </wgt>
<wgt id='1044'> +7.4484088e+04 </wgt>
<wgt id='1045'> +7.4458451e+04 </wgt>
<wgt id='1046'> +7.4439169e+04 </wgt>
<wgt id='1047'> +7.4643364e+04 </wgt>
<wgt id='1048'> +7.4548423e+04 </wgt>
<wgt id='1049'> +7.4425289e+04 </wgt>
<wgt id='1050'> +7.4467440e+04 </wgt>
<wgt id='1051'> +7.4501215e+04 </wgt>
<wgt id='1052'> +7.4654990e+04 </wgt>
<wgt id='1053'> +7.4453422e+04 </wgt>
<wgt id='1054'> +7.4464526e+04 </wgt>
<wgt id='1055'> +7.4543298e+04 </wgt>
<wgt id='1056'> +7.4544930e+04 </wgt>
<wgt id='1057'> +7.4530529e+04 </wgt>
<wgt id='1058'> +7.4532560e+04 </wgt>
<wgt id='1059'> +7.4443635e+04 </wgt>
<wgt id='1060'> +7.4397159e+04 </wgt>
<wgt id='1061'> +7.4467405e+04 </wgt>
<wgt id='1062'> +7.4624983e+04 </wgt>
<wgt id='1063'> +7.4504339e+04 </wgt>
<wgt id='1064'> +7.4481749e+04 </wgt>
<wgt id='1065'> +7.4555851e+04 </wgt>
<wgt id='1066'> +7.4488143e+04 </wgt>
<wgt id='1067'> +7.4526002e+04 </wgt>
<wgt id='1068'> +7.4602512e+04 </wgt>
<wgt id='1069'> +7.4602267e+04 </wgt>
<wgt id='1070'> +7.4467702e+04 </wgt>
<wgt id='1071'> +7.4453379e+04 </wgt>
<wgt id='1072'> +7.4627974e+04 </wgt>
<wgt id='1073'> +7.4618942e+04 </wgt>
<wgt id='1074'> +7.4520225e+04 </wgt>
<wgt id='1075'> +7.4564037e+04 </wgt>
<wgt id='1076'> +7.4590631e+04 </wgt>
<wgt id='1077'> +7.4573185e+04 </wgt>
<wgt id='1078'> +7.4539727e+04 </wgt>
<wgt id='1079'> +7.4533916e+04 </wgt>
<wgt id='1080'> +7.4550671e+04 </wgt>
<wgt id='1081'> +7.4555251e+04 </wgt>
<wgt id='1082'> +7.4541269e+04 </wgt>
<wgt id='1083'> +7.4487712e+04 </wgt>
<wgt id='1084'> +7.4533303e+04 </wgt>
<wgt id='1085'> +7.4500538e+04 </wgt>
<wgt id='1086'> +7.4502291e+04 </wgt>
<wgt id='1087'> +7.4511188e+04 </wgt>
<wgt id='1088'> +7.4514018e+04 </wgt>
<wgt id='1089'> +7.4522484e+04 </wgt>
<wgt id='1090'> +7.4474569e+04 </wgt>
<wgt id='1091'> +7.4492199e+04 </wgt>
<wgt id='1092'> +7.4557478e+04 </wgt>
<wgt id='1093'> +7.4532122e+04 </wgt>
<wgt id='1094'> +7.4533926e+04 </wgt>
<wgt id='1095'> +7.4511240e+04 </wgt>
<wgt id='1096'> +7.4495009e+04 </wgt>
<wgt id='1097'> +7.4514172e+04 </wgt>
<wgt id='1098'> +7.4514377e+04 </wgt>
<wgt id='1099'> +7.4524256e+04 </wgt>
<wgt id='1100'> +7.4545309e+04 </wgt>
<wgt id='1101'> +7.4517088e+04 </wgt>
<wgt id='1102'> +7.4523734e+04 </wgt>
<wgt id='1103'> +7.4512415e+04 </wgt>
<wgt id='1104'> +7.4520775e+04 </wgt>
<wgt id='1105'> +7.4537260e+04 </wgt>
<wgt id='1106'> +7.4528680e+04 </wgt>
<wgt id='1107'> +7.4528118e+04 </wgt>
<wgt id='1108'> +7.4520236e+04 </wgt>
<wgt id='1109'> +7.4533289e+04 </wgt>
<wgt id='1110'> +7.4519529e+04 </wgt>
<wgt id='1111'> +7.3359573e+04 </wgt>
<wgt id='1112'> +7.5604849e+04 </wgt>
<wgt id='1113'> +7.4519529e+04 </wgt>
<wgt id='1114'> +7.6294309e+04 </wgt>
<wgt id='1115'> +7.4651397e+04 </wgt>
<wgt id='1116'> +7.1876306e+04 </wgt>
<wgt id='1117'> +7.4774091e+04 </wgt>
<wgt id='1118'> +7.3683381e+04 </wgt>
<wgt id='1119'> +7.8997683e+04 </wgt>
<wgt id='1120'> +7.4885110e+04 </wgt>
<wgt id='1121'> +7.1731177e+04 </wgt>
<wgt id='1122'> +7.4814832e+04 </wgt>
<wgt id='1123'> +7.5395351e+04 </wgt>
<wgt id='1124'> +7.5584049e+04 </wgt>
<wgt id='1125'> +7.4458041e+04 </wgt>
<wgt id='1126'> +7.4087086e+04 </wgt>
<wgt id='1127'> +7.2723034e+04 </wgt>
<wgt id='1128'> +7.4666727e+04 </wgt>
<wgt id='1129'> +7.5722170e+04 </wgt>
<wgt id='1130'> +7.6798869e+04 </wgt>
<wgt id='1131'> +7.4863698e+04 </wgt>
<wgt id='1132'> +7.3487533e+04 </wgt>
<wgt id='1133'> +7.2489917e+04 </wgt>
<wgt id='1134'> +7.2708158e+04 </wgt>
<wgt id='1135'> +7.3763800e+04 </wgt>
<wgt id='1136'> +7.4569990e+04 </wgt>
<wgt id='1137'> +7.3378201e+04 </wgt>
<wgt id='1138'> +7.3853863e+04 </wgt>
<wgt id='1139'> +7.2990574e+04 </wgt>
<wgt id='1140'> +7.6123257e+04 </wgt>
<wgt id='1141'> +7.5321374e+04 </wgt>
<wgt id='1142'> +7.5459985e+04 </wgt>
<wgt id='1143'> +7.7761854e+04 </wgt>
<wgt id='1144'> +7.4843748e+04 </wgt>
<wgt id='1145'> +7.6242610e+04 </wgt>
<wgt id='1146'> +7.5667468e+04 </wgt>
<wgt id='1147'> +7.3549208e+04 </wgt>
<wgt id='1148'> +7.4975092e+04 </wgt>
<wgt id='1149'> +7.4691850e+04 </wgt>
<wgt id='1150'> +7.4645509e+04 </wgt>
<wgt id='1151'> +7.4512201e+04 </wgt>
<wgt id='1152'> +7.3511181e+04 </wgt>
<wgt id='1153'> +7.2854052e+04 </wgt>
<wgt id='1154'> +7.4644979e+04 </wgt>
<wgt id='1155'> +7.5643261e+04 </wgt>
<wgt id='1156'> +7.5539157e+04 </wgt>
<wgt id='1157'> +7.5328184e+04 </wgt>
<wgt id='1158'> +7.3614210e+04 </wgt>
<wgt id='1159'> +7.5463444e+04 </wgt>
<wgt id='1160'> +7.5783988e+04 </wgt>
<wgt id='1161'> +7.1551965e+04 </wgt>
<wgt id='1162'> +7.6693334e+04 </wgt>
<wgt id='1163'> +7.5719756e+04 </wgt>
<wgt id='1164'> +7.2871861e+04 </wgt>
<wgt id='1165'> +7.3815389e+04 </wgt>
<wgt id='1166'> +7.4913397e+04 </wgt>
<wgt id='1167'> +7.5900693e+04 </wgt>
<wgt id='1168'> +7.1006811e+04 </wgt>
<wgt id='1169'> +7.4853942e+04 </wgt>
<wgt id='1170'> +7.5284901e+04 </wgt>
<wgt id='1171'> +7.3774392e+04 </wgt>
<wgt id='1172'> +7.5405574e+04 </wgt>
<wgt id='1173'> +7.3706068e+04 </wgt>
<wgt id='1174'> +7.5902387e+04 </wgt>
<wgt id='1175'> +7.4822336e+04 </wgt>
<wgt id='1176'> +7.1829933e+04 </wgt>
<wgt id='1177'> +7.1723568e+04 </wgt>
<wgt id='1178'> +7.5622782e+04 </wgt>
<wgt id='1179'> +7.4454798e+04 </wgt>
<wgt id='1180'> +7.2042324e+04 </wgt>
<wgt id='1181'> +7.6249119e+04 </wgt>
<wgt id='1182'> +7.5159264e+04 </wgt>
<wgt id='1183'> +7.3582778e+04 </wgt>
<wgt id='1184'> +7.4870734e+04 </wgt>
<wgt id='1185'> +7.3334145e+04 </wgt>
<wgt id='1186'> +7.4199067e+04 </wgt>
<wgt id='1187'> +7.3745644e+04 </wgt>
<wgt id='1188'> +7.5393288e+04 </wgt>
<wgt id='1189'> +7.5005968e+04 </wgt>
<wgt id='1190'> +7.3704149e+04 </wgt>
<wgt id='1191'> +7.6148741e+04 </wgt>
<wgt id='1192'> +7.4346051e+04 </wgt>
<wgt id='1193'> +7.4806183e+04 </wgt>
<wgt id='1194'> +7.3557183e+04 </wgt>
<wgt id='1195'> +7.5722170e+04 </wgt>
<wgt id='1196'> +7.4045203e+04 </wgt>
<wgt id='1197'> +7.3770772e+04 </wgt>
<wgt id='1198'> +7.6014625e+04 </wgt>
<wgt id='1199'> +7.6043918e+04 </wgt>
<wgt id='1200'> +7.5376827e+04 </wgt>
<wgt id='1201'> +7.6970380e+04 </wgt>
<wgt id='1202'> +7.4332159e+04 </wgt>
<wgt id='1203'> +7.4242980e+04 </wgt>
<wgt id='1204'> +7.3661305e+04 </wgt>
<wgt id='1205'> +7.3521708e+04 </wgt>
<wgt id='1206'> +7.4631686e+04 </wgt>
<wgt id='1207'> +7.5142890e+04 </wgt>
<wgt id='1208'> +7.4134730e+04 </wgt>
<wgt id='1209'> +7.4110289e+04 </wgt>
<wgt id='1210'> +7.3807157e+04 </wgt>
<wgt id='1211'> +7.4239724e+04 </wgt>
<wgt id='1212'> +7.3049795e+04 </wgt>
<wgt id='1213'> +7.3816310e+04 </wgt>
<wgt id='1214'> +7.4455191e+04 </wgt>
<wgt id='1215'> +6.9440564e+04 </wgt>
<wgt id='1216'> +7.0206280e+04 </wgt>
<wgt id='1217'> +7.1221990e+04 </wgt>
<wgt id='1218'> +7.2376688e+04 </wgt>
<wgt id='1219'> +7.4140156e+04 </wgt>
<wgt id='1220'> +7.5186678e+04 </wgt>
<wgt id='1221'> +7.6583095e+04 </wgt>
<wgt id='1222'> +7.7434142e+04 </wgt>
<wgt id='1223'> +7.4089502e+04 </wgt>
<wgt id='1224'> +7.4136879e+04 </wgt>
<wgt id='1225'> +7.4174588e+04 </wgt>
<wgt id='1226'> +7.4057493e+04 </wgt>
<wgt id='1227'> +7.4499758e+04 </wgt>
<wgt id='1228'> +7.4249104e+04 </wgt>
<wgt id='1229'> +7.3850067e+04 </wgt>
<wgt id='1230'> +7.4410156e+04 </wgt>
<wgt id='1231'> +7.4281806e+04 </wgt>
<wgt id='1232'> +7.4351940e+04 </wgt>
<wgt id='1233'> +7.3743648e+04 </wgt>
<wgt id='1234'> +7.3892481e+04 </wgt>
<wgt id='1235'> +7.4293762e+04 </wgt>
<wgt id='1236'> +7.4367136e+04 </wgt>
<wgt id='1237'> +7.4103663e+04 </wgt>
<wgt id='1238'> +7.3893926e+04 </wgt>
<wgt id='1239'> +7.4580609e+04 </wgt>
<wgt id='1240'> +7.3992920e+04 </wgt>
<wgt id='1241'> +7.4381472e+04 </wgt>
<wgt id='1242'> +7.4099683e+04 </wgt>
<wgt id='1243'> +7.3918260e+04 </wgt>
<wgt id='1244'> +7.4035281e+04 </wgt>
<wgt id='1245'> +7.3961313e+04 </wgt>
<wgt id='1246'> +7.3564878e+04 </wgt>
<wgt id='1247'> +7.4209460e+04 </wgt>
<wgt id='1248'> +7.4111669e+04 </wgt>
<wgt id='1249'> +7.4367161e+04 </wgt>
<wgt id='1250'> +7.4038819e+04 </wgt>
<wgt id='1251'> +7.3904579e+04 </wgt>
<wgt id='1252'> +7.4108503e+04 </wgt>
<wgt id='1253'> +7.3834772e+04 </wgt>
<wgt id='1254'> +7.4307944e+04 </wgt>
<wgt id='1255'> +7.4197697e+04 </wgt>
<wgt id='1256'> +7.4195072e+04 </wgt>
<wgt id='1257'> +7.4218387e+04 </wgt>
<wgt id='1258'> +7.4310719e+04 </wgt>
<wgt id='1259'> +7.4118239e+04 </wgt>
<wgt id='1260'> +7.4121315e+04 </wgt>
<wgt id='1261'> +7.4170929e+04 </wgt>
<wgt id='1262'> +7.4042814e+04 </wgt>
<wgt id='1263'> +7.4095775e+04 </wgt>
<wgt id='1264'> +7.4154232e+04 </wgt>
<wgt id='1265'> +7.3858823e+04 </wgt>
<wgt id='1266'> +7.4080268e+04 </wgt>
<wgt id='1267'> +7.4109724e+04 </wgt>
<wgt id='1268'> +7.4141511e+04 </wgt>
<wgt id='1269'> +7.4235229e+04 </wgt>
<wgt id='1270'> +7.4136844e+04 </wgt>
<wgt id='1271'> +7.4086692e+04 </wgt>
<wgt id='1272'> +7.4022274e+04 </wgt>
<wgt id='1273'> +7.4136463e+04 </wgt>
<wgt id='1274'> +7.4110033e+04 </wgt>
<wgt id='1275'> +7.3938426e+04 </wgt>
<wgt id='1276'> +7.4007270e+04 </wgt>
<wgt id='1277'> +7.4048030e+04 </wgt>
<wgt id='1278'> +7.4091174e+04 </wgt>
<wgt id='1279'> +7.4125608e+04 </wgt>
<wgt id='1280'> +7.4049173e+04 </wgt>
<wgt id='1281'> +7.4081263e+04 </wgt>
<wgt id='1282'> +7.4126535e+04 </wgt>
<wgt id='1283'> +7.4116133e+04 </wgt>
<wgt id='1284'> +7.4101128e+04 </wgt>
<wgt id='1285'> +7.4136022e+04 </wgt>
<wgt id='1286'> +7.4087606e+04 </wgt>
<wgt id='1287'> +7.4064185e+04 </wgt>
<wgt id='1288'> +7.4088043e+04 </wgt>
<wgt id='1289'> +7.4073163e+04 </wgt>
<wgt id='1290'> +7.4115757e+04 </wgt>
<wgt id='1291'> +7.4052938e+04 </wgt>
<wgt id='1292'> +7.4086620e+04 </wgt>
<wgt id='1293'> +7.4033885e+04 </wgt>
<wgt id='1294'> +7.4058409e+04 </wgt>
<wgt id='1295'> +7.4102663e+04 </wgt>
<wgt id='1296'> +7.4117958e+04 </wgt>
<wgt id='1297'> +7.4098196e+04 </wgt>
<wgt id='1298'> +7.4038295e+04 </wgt>
<wgt id='1299'> +7.4057815e+04 </wgt>
<wgt id='1300'> +7.4091211e+04 </wgt>
<wgt id='1301'> +7.4103088e+04 </wgt>
<wgt id='1302'> +7.4057390e+04 </wgt>
<wgt id='1303'> +7.4092883e+04 </wgt>
<wgt id='1304'> +7.4053186e+04 </wgt>
<wgt id='1305'> +7.4102310e+04 </wgt>
<wgt id='1306'> +7.4133536e+04 </wgt>
<wgt id='1307'> +7.4081992e+04 </wgt>
<wgt id='1308'> +7.4101291e+04 </wgt>
<wgt id='1309'> +7.4097253e+04 </wgt>
<wgt id='1310'> +7.4101327e+04 </wgt>
<wgt id='1311'> +7.4062298e+04 </wgt>
<wgt id='1312'> +7.4085544e+04 </wgt>
<wgt id='1313'> +7.4108353e+04 </wgt>
<wgt id='1314'> +7.4073453e+04 </wgt>
<wgt id='1315'> +7.4078070e+04 </wgt>
<wgt id='1316'> +7.4082014e+04 </wgt>
<wgt id='1317'> +7.4092103e+04 </wgt>
<wgt id='1318'> +7.4083469e+04 </wgt>
<wgt id='1319'> +7.4082346e+04 </wgt>
<wgt id='1320'> +7.4070511e+04 </wgt>
<wgt id='1321'> +7.4097578e+04 </wgt>
<wgt id='1322'> +7.4100079e+04 </wgt>
<wgt id='1323'> +7.4119787e+04 </wgt>
<wgt id='1324'> +7.2914753e+04 </wgt>
<wgt id='1325'> +7.5231908e+04 </wgt>
<wgt id='1326'> +7.3212127e+04 </wgt>
<wgt id='1327'> +7.1796397e+04 </wgt>
<wgt id='1328'> +7.3170627e+04 </wgt>
<wgt id='1329'> +7.3115264e+04 </wgt>
<wgt id='1330'> +7.2940254e+04 </wgt>
<wgt id='1331'> +7.2354433e+04 </wgt>
<wgt id='1332'> +7.3282636e+04 </wgt>
<wgt id='1333'> +7.4099858e+04 </wgt>
<wgt id='1334'> +7.2081287e+04 </wgt>
<wgt id='1335'> +7.3167166e+04 </wgt>
<wgt id='1336'> +7.3164549e+04 </wgt>
<wgt id='1337'> +7.3283802e+04 </wgt>
<wgt id='1338'> +7.2819362e+04 </wgt>
<wgt id='1339'> +7.3715365e+04 </wgt>
<wgt id='1340'> +7.1392431e+04 </wgt>
<wgt id='1341'> +7.2310959e+04 </wgt>
<wgt id='1342'> +7.3197535e+04 </wgt>
<wgt id='1343'> +7.3392579e+04 </wgt>
<wgt id='1344'> +7.4340196e+04 </wgt>
<wgt id='1345'> +7.3577754e+04 </wgt>
<wgt id='1346'> +7.4493258e+04 </wgt>
<wgt id='1347'> +7.3199081e+04 </wgt>
<wgt id='1348'> +7.2293020e+04 </wgt>
<wgt id='1349'> +7.3092087e+04 </wgt>
<wgt id='1350'> +7.2618485e+04 </wgt>
<wgt id='1351'> +7.2268202e+04 </wgt>
<wgt id='1352'> +7.3828503e+04 </wgt>
<wgt id='1353'> +7.4790212e+04 </wgt>
<wgt id='1354'> +7.2644624e+04 </wgt>
<wgt id='1355'> +7.2693436e+04 </wgt>
<wgt id='1356'> +7.2298566e+04 </wgt>
<wgt id='1357'> +7.3492676e+04 </wgt>
<wgt id='1358'> +7.3711970e+04 </wgt>
<wgt id='1359'> +7.3265932e+04 </wgt>
<wgt id='1360'> +7.4063113e+04 </wgt>
<wgt id='1361'> +7.4361330e+04 </wgt>
<wgt id='1362'> +7.3036976e+04 </wgt>
<wgt id='1363'> +7.2065115e+04 </wgt>
<wgt id='1364'> +7.2877630e+04 </wgt>
<wgt id='1365'> +7.4218206e+04 </wgt>
<wgt id='1366'> +7.2925725e+04 </wgt>
<wgt id='1367'> +7.3683957e+04 </wgt>
<wgt id='1368'> +7.1664688e+04 </wgt>
<wgt id='1369'> +7.5426138e+04 </wgt>
<wgt id='1370'> +7.1561920e+04 </wgt>
<wgt id='1371'> +7.3076703e+04 </wgt>
<wgt id='1372'> +7.3264646e+04 </wgt>
<wgt id='1373'> +7.4233222e+04 </wgt>
<wgt id='1374'> +7.2426943e+04 </wgt>
<wgt id='1375'> +7.3244857e+04 </wgt>
<wgt id='1376'> +7.1814614e+04 </wgt>
<wgt id='1377'> +7.2991490e+04 </wgt>
<wgt id='1378'> +7.1540445e+04 </wgt>
<wgt id='1379'> +7.3296396e+04 </wgt>
<wgt id='1380'> +7.4268838e+04 </wgt>
<wgt id='1381'> +7.2727118e+04 </wgt>
<wgt id='1382'> +7.3050097e+04 </wgt>
<wgt id='1383'> +7.2102313e+04 </wgt>
<wgt id='1384'> +7.2990111e+04 </wgt>
<wgt id='1385'> +7.1248636e+04 </wgt>
<wgt id='1386'> +7.3895299e+04 </wgt>
<wgt id='1387'> +7.2670592e+04 </wgt>
<wgt id='1388'> +7.3351286e+04 </wgt>
<wgt id='1389'> +7.2920221e+04 </wgt>
<wgt id='1390'> +7.2918735e+04 </wgt>
<wgt id='1391'> +7.4716112e+04 </wgt>
<wgt id='1392'> +7.2555747e+04 </wgt>
<wgt id='1393'> +7.3125770e+04 </wgt>
<wgt id='1394'> +7.4218206e+04 </wgt>
<wgt id='1395'> +7.3085635e+04 </wgt>
<wgt id='1396'> +7.2332599e+04 </wgt>
<wgt id='1397'> +7.3446146e+04 </wgt>
<wgt id='1398'> +7.4114065e+04 </wgt>
<wgt id='1399'> +7.3047855e+04 </wgt>
<wgt id='1400'> +7.4422664e+04 </wgt>
<wgt id='1401'> +7.2542225e+04 </wgt>
<wgt id='1402'> +7.3878142e+04 </wgt>
<wgt id='1403'> +7.3661201e+04 </wgt>
<wgt id='1404'> +7.2951766e+04 </wgt>
<wgt id='1405'> +7.3910348e+04 </wgt>
<wgt id='1406'> +7.2127821e+04 </wgt>
<wgt id='1407'> +7.4445962e+04 </wgt>
<wgt id='1408'> +7.3749651e+04 </wgt>
<wgt id='1409'> +7.2765662e+04 </wgt>
<wgt id='1410'> +7.4143740e+04 </wgt>
<wgt id='1411'> +7.2675960e+04 </wgt>
<wgt id='1412'> +7.3479984e+04 </wgt>
<wgt id='1413'> +7.3011043e+04 </wgt>
<wgt id='1414'> +7.2860291e+04 </wgt>
<wgt id='1415'> +7.2927702e+04 </wgt>
<wgt id='1416'> +7.3623265e+04 </wgt>
<wgt id='1417'> +7.4168318e+04 </wgt>
<wgt id='1418'> +7.4624605e+04 </wgt>
<wgt id='1419'> +7.2073112e+04 </wgt>
<wgt id='1420'> +7.2311503e+04 </wgt>
<wgt id='1421'> +7.3346116e+04 </wgt>
<wgt id='1422'> +7.2230767e+04 </wgt>
<wgt id='1423'> +7.4490305e+04 </wgt>
<wgt id='1424'> +7.1618079e+04 </wgt>
<wgt id='1425'> +7.3400319e+04 </wgt>
<wgt id='1426'> +7.2713620e+04 </wgt>
<wgt id='1427'> +7.3399448e+04 </wgt>
<wgt id='1428'> +7.4028744e+04 </wgt>
<wgt id='1429'> +7.2778425e+04 </wgt>
<wgt id='1430'> +7.3464258e+04 </wgt>
<wgt id='1431'> +7.3068980e+04 </wgt>
<wgt id='1432'> +7.3093382e+04 </wgt>
<wgt id='1433'> +7.3126005e+04 </wgt>
<wgt id='1434'> +7.3071594e+04 </wgt>
<wgt id='1435'> +7.3049165e+04 </wgt>
<wgt id='1436'> +7.2609995e+04 </wgt>
<wgt id='1437'> +7.3420957e+04 </wgt>
<wgt id='1438'> +7.3392064e+04 </wgt>
<wgt id='1439'> +7.3179658e+04 </wgt>
<wgt id='1440'> +7.3062995e+04 </wgt>
<wgt id='1441'> +7.3103240e+04 </wgt>
<wgt id='1442'> +7.2881395e+04 </wgt>
<wgt id='1443'> +7.3346806e+04 </wgt>
<wgt id='1444'> +7.2933199e+04 </wgt>
<wgt id='1445'> +7.2944279e+04 </wgt>
<wgt id='1446'> +7.2928449e+04 </wgt>
<wgt id='1447'> +7.3042032e+04 </wgt>
<wgt id='1448'> +7.2973398e+04 </wgt>
<wgt id='1449'> +7.3016422e+04 </wgt>
<wgt id='1450'> +7.3025472e+04 </wgt>
<wgt id='1451'> +7.3183972e+04 </wgt>
<wgt id='1452'> +7.2947105e+04 </wgt>
<wgt id='1453'> +7.3135543e+04 </wgt>
<wgt id='1454'> +7.3125965e+04 </wgt>
<wgt id='1455'> +7.3107715e+04 </wgt>
<wgt id='1456'> +7.3057415e+04 </wgt>
<wgt id='1457'> +7.3076503e+04 </wgt>
<wgt id='1458'> +7.3036047e+04 </wgt>
<wgt id='1459'> +7.3043581e+04 </wgt>
<wgt id='1460'> +7.3079675e+04 </wgt>
<wgt id='1461'> +7.3044312e+04 </wgt>
<wgt id='1462'> +7.3085627e+04 </wgt>
<wgt id='1463'> +7.3087862e+04 </wgt>
<wgt id='1464'> +7.3095286e+04 </wgt>
<wgt id='1465'> +7.3086259e+04 </wgt>
<wgt id='1466'> +7.3066034e+04 </wgt>
<wgt id='1467'> +7.3054326e+04 </wgt>
<wgt id='1468'> +7.3063112e+04 </wgt>
<wgt id='1469'> +7.3060402e+04 </wgt>
<wgt id='1470'> +7.3067700e+04 </wgt>
<wgt id='1471'> +7.3073337e+04 </wgt>
<wgt id='1472'> +7.3071965e+04 </wgt>
<wgt id='1473'> +7.3068244e+04 </wgt>
<wgt id='1474'> +7.3072943e+04 </wgt>
<wgt id='1475'> +7.3071648e+04 </wgt>
<wgt id='1476'> +7.3060618e+04 </wgt>
<wgt id='1477'> +7.3055703e+04 </wgt>
<wgt id='1478'> +7.3085649e+04 </wgt>
<wgt id='1479'> +7.3071732e+04 </wgt>
<wgt id='1480'> +7.3062721e+04 </wgt>
<wgt id='1481'> +7.3072193e+04 </wgt>
<wgt id='1482'> +7.2778425e+04 </wgt>
<wgt id='1483'> +7.3464258e+04 </wgt>
<wgt id='1484'> +7.3588649e+04 </wgt>
<wgt id='1485'> +7.3829207e+04 </wgt>
<wgt id='1486'> +7.3604036e+04 </wgt>
<wgt id='1487'> +7.5165690e+04 </wgt>
<wgt id='1488'> +7.4573678e+04 </wgt>
<wgt id='1489'> +7.4018187e+04 </wgt>
<wgt id='1490'> +7.4961413e+04 </wgt>
<wgt id='1491'> +7.1750184e+04 </wgt>
<wgt id='1492'> +7.4573363e+04 </wgt>
<wgt id='1493'> +7.3751657e+04 </wgt>
<wgt id='1494'> +7.3442436e+04 </wgt>
<wgt id='1495'> +7.3528793e+04 </wgt>
<wgt id='1496'> +7.3918305e+04 </wgt>
<wgt id='1497'> +7.3025274e+04 </wgt>
<wgt id='1498'> +7.4245659e+04 </wgt>
<wgt id='1499'> +7.3813671e+04 </wgt>
<wgt id='1500'> +7.4634391e+04 </wgt>
<wgt id='1501'> +7.3723647e+04 </wgt>
<wgt id='1502'> +7.3382483e+04 </wgt>
<wgt id='1503'> +7.3402348e+04 </wgt>
<wgt id='1504'> +7.4159371e+04 </wgt>
<wgt id='1505'> +7.4003757e+04 </wgt>
<wgt id='1506'> +7.4750263e+04 </wgt>
<wgt id='1507'> +7.3990911e+04 </wgt>
<wgt id='1508'> +7.3551116e+04 </wgt>
<wgt id='1509'> +7.2111541e+04 </wgt>
<wgt id='1510'> +7.1983373e+04 </wgt>
<wgt id='1511'> +7.2115903e+04 </wgt>
<wgt id='1512'> +7.4560962e+04 </wgt>
<wgt id='1513'> +7.2646022e+04 </wgt>
<wgt id='1514'> +7.3180367e+04 </wgt>
<wgt id='1515'> +7.3315369e+04 </wgt>
<wgt id='1516'> +7.3592800e+04 </wgt>
<wgt id='1517'> +7.3117507e+04 </wgt>
<wgt id='1518'> +7.3645220e+04 </wgt>
<wgt id='1519'> +7.3770232e+04 </wgt>
<wgt id='1520'> +7.2513781e+04 </wgt>
<wgt id='1521'> +7.3710822e+04 </wgt>
<wgt id='1522'> +7.3152584e+04 </wgt>
<wgt id='1523'> +7.4330909e+04 </wgt>
<wgt id='1524'> +7.3896549e+04 </wgt>
<wgt id='1525'> +7.3819498e+04 </wgt>
<wgt id='1526'> +7.2188395e+04 </wgt>
<wgt id='1527'> +7.3688209e+04 </wgt>
<wgt id='1528'> +7.2904478e+04 </wgt>
<wgt id='1529'> +7.3852385e+04 </wgt>
<wgt id='1530'> +7.3853523e+04 </wgt>
<wgt id='1531'> +7.3855306e+04 </wgt>
<wgt id='1532'> +7.5794891e+04 </wgt>
<wgt id='1533'> +7.4135985e+04 </wgt>
<wgt id='1534'> +7.3215133e+04 </wgt>
<wgt id='1535'> +7.4279210e+04 </wgt>
<wgt id='1536'> +7.3359054e+04 </wgt>
<wgt id='1537'> +7.1403718e+04 </wgt>
<wgt id='1538'> +7.3026242e+04 </wgt>
<wgt id='1539'> +7.4634067e+04 </wgt>
<wgt id='1540'> +7.4185194e+04 </wgt>
<wgt id='1541'> +7.4997371e+04 </wgt>
<wgt id='1542'> +7.3615604e+04 </wgt>
<wgt id='1543'> +7.3830137e+04 </wgt>
<wgt id='1544'> +7.3939797e+04 </wgt>
<wgt id='1545'> +7.3673838e+04 </wgt>
<wgt id='1546'> +7.3221972e+04 </wgt>
<wgt id='1547'> +7.3405396e+04 </wgt>
<wgt id='1548'> +7.4102590e+04 </wgt>
<wgt id='1549'> +7.3689119e+04 </wgt>
<wgt id='1550'> +7.4041116e+04 </wgt>
<wgt id='1551'> +7.3994702e+04 </wgt>
<wgt id='1552'> +7.3188447e+04 </wgt>
<wgt id='1553'> +7.4133536e+04 </wgt>
<wgt id='1554'> +7.2274301e+04 </wgt>
<wgt id='1555'> +7.3163359e+04 </wgt>
<wgt id='1556'> +7.2752098e+04 </wgt>
<wgt id='1557'> +7.3718819e+04 </wgt>
<wgt id='1558'> +7.3921580e+04 </wgt>
<wgt id='1559'> +7.3915298e+04 </wgt>
<wgt id='1560'> +7.4295077e+04 </wgt>
<wgt id='1561'> +7.2351186e+04 </wgt>
<wgt id='1562'> +7.3840317e+04 </wgt>
<wgt id='1563'> +7.3116987e+04 </wgt>
<wgt id='1564'> +7.3209277e+04 </wgt>
<wgt id='1565'> +7.3392002e+04 </wgt>
<wgt id='1566'> +7.3367828e+04 </wgt>
<wgt id='1567'> +7.2978142e+04 </wgt>
<wgt id='1568'> +7.3330073e+04 </wgt>
<wgt id='1569'> +7.3443955e+04 </wgt>
<wgt id='1570'> +7.3130114e+04 </wgt>
<wgt id='1571'> +7.4044527e+04 </wgt>
<wgt id='1572'> +7.3930994e+04 </wgt>
<wgt id='1573'> +7.3066715e+04 </wgt>
<wgt id='1574'> +7.2923379e+04 </wgt>
<wgt id='1575'> +7.4431545e+04 </wgt>
<wgt id='1576'> +7.4197873e+04 </wgt>
<wgt id='1577'> +7.2744529e+04 </wgt>
<wgt id='1578'> +7.2807314e+04 </wgt>
<wgt id='1579'> +7.3883458e+04 </wgt>
<wgt id='1580'> +7.3400934e+04 </wgt>
<wgt id='1581'> +7.2965933e+04 </wgt>
<wgt id='1582'> +7.4165287e+04 </wgt>
<wgt id='1583'> +7.2712559e+04 </wgt>
<wgt id='1584'> +7.3938528e+04 </wgt>
<wgt id='1585'> +7.2486456e+04 </wgt>
<wgt id='1586'> +7.1541552e+04 </wgt>
<wgt id='1587'> +7.2543728e+04 </wgt>
<wgt id='1588'> +7.2778425e+04 </wgt>
<wgt id='1589'> +7.2891694e+04 </wgt>
<wgt id='1590'> +7.3040107e+04 </wgt>
<wgt id='1591'> +7.3464258e+04 </wgt>
<wgt id='1592'> +7.3619757e+04 </wgt>
<wgt id='1593'> +7.1757161e+04 </wgt>
<wgt id='1594'> +7.2057676e+04 </wgt>
<wgt id='1595'> +7.0512135e+04 </wgt>
<wgt id='1596'> +7.0794046e+04 </wgt>
<wgt id='1597'> +7.2829275e+04 </wgt>
<wgt id='1598'> +6.9912744e+04 </wgt>
<wgt id='1599'> +7.3321310e+04 </wgt>
<wgt id='1600'> +7.0972894e+04 </wgt>
<wgt id='1601'> +7.2350881e+04 </wgt>
<wgt id='1602'> +7.1778875e+04 </wgt>
<wgt id='1603'> +7.1875915e+04 </wgt>
<wgt id='1604'> +7.2689812e+04 </wgt>
<wgt id='1605'> +7.0833475e+04 </wgt>
<wgt id='1606'> +7.2539615e+04 </wgt>
<wgt id='1607'> +7.0413352e+04 </wgt>
<wgt id='1608'> +7.1003233e+04 </wgt>
<wgt id='1609'> +7.1799968e+04 </wgt>
<wgt id='1610'> +7.0289447e+04 </wgt>
<wgt id='1611'> +7.2985737e+04 </wgt>
<wgt id='1612'> +7.3174311e+04 </wgt>
<wgt id='1613'> +6.9253359e+04 </wgt>
<wgt id='1614'> +7.1656835e+04 </wgt>
<wgt id='1615'> +7.1889299e+04 </wgt>
<wgt id='1616'> +7.0843700e+04 </wgt>
<wgt id='1617'> +7.2325614e+04 </wgt>
<wgt id='1618'> +7.2254753e+04 </wgt>
<wgt id='1619'> +7.0538293e+04 </wgt>
<wgt id='1620'> +7.1272213e+04 </wgt>
<wgt id='1621'> +7.1977530e+04 </wgt>
<wgt id='1622'> +7.1074486e+04 </wgt>
<wgt id='1623'> +7.1680173e+04 </wgt>
<wgt id='1624'> +7.1804106e+04 </wgt>
<wgt id='1625'> +7.0679085e+04 </wgt>
<wgt id='1626'> +7.1456205e+04 </wgt>
<wgt id='1627'> +7.1545743e+04 </wgt>
<wgt id='1628'> +7.2756711e+04 </wgt>
<wgt id='1629'> +7.1091497e+04 </wgt>
<wgt id='1630'> +7.2906202e+04 </wgt>
<wgt id='1631'> +7.0353818e+04 </wgt>
<wgt id='1632'> +7.1021503e+04 </wgt>
<wgt id='1633'> +7.2225017e+04 </wgt>
<wgt id='1634'> +7.2636974e+04 </wgt>
<wgt id='1635'> +7.0757486e+04 </wgt>
<wgt id='1636'> +7.0651363e+04 </wgt>
<wgt id='1637'> +7.2687420e+04 </wgt>
<wgt id='1638'> +7.2163602e+04 </wgt>
<wgt id='1639'> +7.1490026e+04 </wgt>
<wgt id='1640'> +7.1719447e+04 </wgt>
<wgt id='1641'> +7.1307088e+04 </wgt>
<wgt id='1642'> +7.1889941e+04 </wgt>
<wgt id='1643'> +7.1251312e+04 </wgt>
<wgt id='1644'> +7.2134406e+04 </wgt>
<wgt id='1645'> +7.0840783e+04 </wgt>
<wgt id='1646'> +7.2466254e+04 </wgt>
<wgt id='1647'> +7.0966685e+04 </wgt>
<wgt id='1648'> +7.1923958e+04 </wgt>
<wgt id='1649'> +7.1894402e+04 </wgt>
<wgt id='1650'> +7.1501738e+04 </wgt>
<wgt id='1651'> +7.1944871e+04 </wgt>
<wgt id='1652'> +7.1768217e+04 </wgt>
<wgt id='1653'> +7.1771257e+04 </wgt>
<wgt id='1654'> +7.1732532e+04 </wgt>
<wgt id='1655'> +7.1705635e+04 </wgt>
<wgt id='1656'> +7.0362988e+04 </wgt>
<wgt id='1657'> +6.9728673e+04 </wgt>
<wgt id='1658'> +7.0363823e+04 </wgt>
<wgt id='1659'> +6.8919631e+04 </wgt>
<wgt id='1660'> +7.1520172e+04 </wgt>
<wgt id='1661'> +7.0709656e+04 </wgt>
<wgt id='1662'> +6.9997626e+04 </wgt>
<wgt id='1663'> +6.9985340e+04 </wgt>
<wgt id='1664'> +7.0151293e+04 </wgt>
<wgt id='1665'> +6.9649115e+04 </wgt>
<wgt id='1666'> +7.0493549e+04 </wgt>
<wgt id='1667'> +7.0344758e+04 </wgt>
<wgt id='1668'> +7.0284045e+04 </wgt>
<wgt id='1669'> +7.0246025e+04 </wgt>
<wgt id='1670'> +7.0358100e+04 </wgt>
<wgt id='1671'> +7.0904943e+04 </wgt>
<wgt id='1672'> +6.9178357e+04 </wgt>
<wgt id='1673'> +7.0624630e+04 </wgt>
<wgt id='1674'> +7.0215666e+04 </wgt>
<wgt id='1675'> +7.0182125e+04 </wgt>
<wgt id='1676'> +7.0649883e+04 </wgt>
<wgt id='1677'> +6.9906756e+04 </wgt>
<wgt id='1678'> +7.0670748e+04 </wgt>
<wgt id='1679'> +7.0848271e+04 </wgt>
<wgt id='1680'> +7.0315978e+04 </wgt>
<wgt id='1681'> +6.9018824e+04 </wgt>
<wgt id='1682'> +7.1238718e+04 </wgt>
<wgt id='1683'> +7.1574774e+04 </wgt>
<wgt id='1684'> +6.9312120e+04 </wgt>
<wgt id='1685'> +7.0522895e+04 </wgt>
<wgt id='1686'> +6.9979523e+04 </wgt>
<wgt id='1687'> +7.1094364e+04 </wgt>
<wgt id='1688'> +6.9254703e+04 </wgt>
<wgt id='1689'> +7.0853276e+04 </wgt>
<wgt id='1690'> +6.9988385e+04 </wgt>
<wgt id='1691'> +7.0065978e+04 </wgt>
<wgt id='1692'> +7.0357757e+04 </wgt>
<wgt id='1693'> +7.0839913e+04 </wgt>
<wgt id='1694'> +7.0089675e+04 </wgt>
<wgt id='1695'> +7.0840780e+04 </wgt>
<wgt id='1696'> +6.9490582e+04 </wgt>
<wgt id='1697'> +7.0638308e+04 </wgt>
<wgt id='1698'> +7.0226293e+04 </wgt>
<wgt id='1699'> +6.9322885e+04 </wgt>
<wgt id='1700'> +7.1745315e+04 </wgt>
<wgt id='1701'> +6.9843455e+04 </wgt>
<wgt id='1702'> +7.0970562e+04 </wgt>
<wgt id='1703'> +7.0234679e+04 </wgt>
<wgt id='1704'> +7.0703739e+04 </wgt>
<wgt id='1705'> +6.9782789e+04 </wgt>
<wgt id='1706'> +7.0629887e+04 </wgt>
<wgt id='1707'> +6.8571582e+04 </wgt>
<wgt id='1708'> +7.1547518e+04 </wgt>
<wgt id='1709'> +6.9607922e+04 </wgt>
<wgt id='1710'> +7.1243372e+04 </wgt>
<wgt id='1711'> +6.9661043e+04 </wgt>
<wgt id='1712'> +7.0712889e+04 </wgt>
<wgt id='1713'> +6.9418601e+04 </wgt>
<wgt id='1714'> +7.0630982e+04 </wgt>
<wgt id='1715'> +7.0559372e+04 </wgt>
<wgt id='1716'> +7.1338066e+04 </wgt>
<wgt id='1717'> +7.0255856e+04 </wgt>
<wgt id='1718'> +7.0455249e+04 </wgt>
<wgt id='1719'> +7.0000321e+04 </wgt>
<wgt id='1720'> +7.0026575e+04 </wgt>
<wgt id='1721'> +7.0465257e+04 </wgt>
<wgt id='1722'> +7.0126610e+04 </wgt>
<wgt id='1723'> +7.0467561e+04 </wgt>
<wgt id='1724'> +7.0375286e+04 </wgt>
<wgt id='1725'> +7.0158751e+04 </wgt>
<wgt id='1726'> +7.0185137e+04 </wgt>
<wgt id='1727'> +7.0328620e+04 </wgt>
<wgt id='1728'> +7.0005554e+04 </wgt>
<wgt id='1729'> +7.0497690e+04 </wgt>
<wgt id='1730'> +7.0423090e+04 </wgt>
<wgt id='1731'> +7.0137240e+04 </wgt>
<wgt id='1732'> +7.0252470e+04 </wgt>
<wgt id='1733'> +7.0252470e+04 </wgt>
<wgt id='1734'> +7.0502297e+04 </wgt>
<wgt id='1735'> +7.0086486e+04 </wgt>
<wgt id='1736'> +7.0396889e+04 </wgt>
<wgt id='1737'> +7.0064072e+04 </wgt>
<wgt id='1738'> +7.0495269e+04 </wgt>
<wgt id='1739'> +6.9842273e+04 </wgt>
<wgt id='1740'> +7.0141922e+04 </wgt>
<wgt id='1741'> +7.0528944e+04 </wgt>
<wgt id='1742'> +7.0248447e+04 </wgt>
<wgt id='1743'> +7.0272778e+04 </wgt>
<wgt id='1744'> +7.0194948e+04 </wgt>
<wgt id='1745'> +7.0419649e+04 </wgt>
<wgt id='1746'> +7.0678838e+04 </wgt>
<wgt id='1747'> +7.0001989e+04 </wgt>
<wgt id='1748'> +7.0209916e+04 </wgt>
<wgt id='1749'> +7.0315202e+04 </wgt>
<wgt id='1750'> +7.0293881e+04 </wgt>
<wgt id='1751'> +7.0215387e+04 </wgt>
<wgt id='1752'> +6.9832216e+04 </wgt>
<wgt id='1753'> +7.0824903e+04 </wgt>
<wgt id='1754'> +7.0189343e+04 </wgt>
<wgt id='1755'> +7.0292611e+04 </wgt>
<wgt id='1756'> +7.0212254e+04 </wgt>
<wgt id='1757'> +7.0389915e+04 </wgt>
<wgt id='1758'> +7.0664067e+04 </wgt>
<wgt id='1759'> +6.9813449e+04 </wgt>
<wgt id='1760'> +7.1129913e+04 </wgt>
<wgt id='1761'> +6.9538642e+04 </wgt>
<wgt id='1762'> +7.0144436e+04 </wgt>
<wgt id='1763'> +7.0213798e+04 </wgt>
<wgt id='1764'> +7.0176347e+04 </wgt>
<wgt id='1765'> +7.0560676e+04 </wgt>
<wgt id='1766'> +7.0217753e+04 </wgt>
<wgt id='1767'> +7.0321818e+04 </wgt>
<wgt id='1768'> +7.0254071e+04 </wgt>
<wgt id='1769'> +7.0237552e+04 </wgt>
<wgt id='1770'> +6.9999491e+04 </wgt>
<wgt id='1771'> +7.0371028e+04 </wgt>
<wgt id='1772'> +7.0194328e+04 </wgt>
<wgt id='1773'> +7.0517257e+04 </wgt>
<wgt id='1774'> +6.9784980e+04 </wgt>
<wgt id='1775'> +7.0577290e+04 </wgt>
<wgt id='1776'> +7.0310744e+04 </wgt>
<wgt id='1777'> +7.0244495e+04 </wgt>
<wgt id='1778'> +7.0099458e+04 </wgt>
<wgt id='1779'> +7.0315721e+04 </wgt>
<wgt id='1780'> +7.1127421e+04 </wgt>
<wgt id='1781'> +7.0061106e+04 </wgt>
<wgt id='1782'> +7.0255856e+04 </wgt>
<wgt id='1783'> +7.0266336e+04 </wgt>
<wgt id='1784'> +7.1610236e+04 </wgt>
<wgt id='1785'> +7.2022851e+04 </wgt>
<wgt id='1786'> +7.1240854e+04 </wgt>
<wgt id='1787'> +7.1606102e+04 </wgt>
<wgt id='1788'> +7.1312327e+04 </wgt>
<wgt id='1789'> +7.1685243e+04 </wgt>
<wgt id='1790'> +7.2251693e+04 </wgt>
<wgt id='1791'> +7.1789853e+04 </wgt>
<wgt id='1792'> +7.1045299e+04 </wgt>
<wgt id='1793'> +7.2087949e+04 </wgt>
<wgt id='1794'> +7.0936692e+04 </wgt>
<wgt id='1795'> +7.1086655e+04 </wgt>
<wgt id='1796'> +7.1787051e+04 </wgt>
<wgt id='1797'> +7.1557633e+04 </wgt>
<wgt id='1798'> +7.1797542e+04 </wgt>
<wgt id='1799'> +7.1639352e+04 </wgt>
<wgt id='1800'> +7.1646042e+04 </wgt>
<wgt id='1801'> +7.3060071e+04 </wgt>
<wgt id='1802'> +7.1568397e+04 </wgt>
<wgt id='1803'> +7.1665191e+04 </wgt>
<wgt id='1804'> +7.1819578e+04 </wgt>
<wgt id='1805'> +7.1727436e+04 </wgt>
<wgt id='1806'> +7.1571290e+04 </wgt>
<wgt id='1807'> +7.1673365e+04 </wgt>
<wgt id='1808'> +7.1690576e+04 </wgt>
<wgt id='1809'> +7.1783863e+04 </wgt>
<wgt id='1810'> +7.1661031e+04 </wgt>
<wgt id='1811'> +7.1625243e+04 </wgt>
<wgt id='1812'> +7.1592395e+04 </wgt>
<wgt id='1813'> +7.1532136e+04 </wgt>
<wgt id='1814'> +7.2160868e+04 </wgt>
<wgt id='1815'> +7.1508421e+04 </wgt>
<wgt id='1816'> +7.1683986e+04 </wgt>
<wgt id='1817'> +7.1571334e+04 </wgt>
<wgt id='1818'> +7.1674147e+04 </wgt>
<wgt id='1819'> +7.1584730e+04 </wgt>
<wgt id='1820'> +7.1819760e+04 </wgt>
<wgt id='1821'> +7.1625209e+04 </wgt>
<wgt id='1822'> +7.1587644e+04 </wgt>
<wgt id='1823'> +7.1674731e+04 </wgt>
<wgt id='1824'> +7.1601373e+04 </wgt>
<wgt id='1825'> +7.1241976e+04 </wgt>
<wgt id='1826'> +7.2331612e+04 </wgt>
<wgt id='1827'> +7.4696922e+04 </wgt>
<wgt id='1828'> +7.4753837e+04 </wgt>
<wgt id='1829'> +7.4637678e+04 </wgt>
<wgt id='1830'> +7.4678866e+04 </wgt>
<wgt id='1831'> +7.4712447e+04 </wgt>
<wgt id='1832'> +7.4803844e+04 </wgt>
<wgt id='1833'> +7.4587525e+04 </wgt>
<wgt id='1834'> +7.4834970e+04 </wgt>
<wgt id='1835'> +7.4552372e+04 </wgt>
<wgt id='1836'> +7.4702114e+04 </wgt>
<wgt id='1837'> +7.4689789e+04 </wgt>
<wgt id='1838'> +7.4868038e+04 </wgt>
<wgt id='1839'> +7.4524016e+04 </wgt>
<wgt id='1840'> +7.4522865e+04 </wgt>
<wgt id='1841'> +7.4867472e+04 </wgt>
<wgt id='1842'> +7.4620344e+04 </wgt>
<wgt id='1843'> +7.4723728e+04 </wgt>
<wgt id='1844'> +7.4735404e+04 </wgt>
<wgt id='1845'> +7.4645227e+04 </wgt>
<wgt id='1846'> +7.4546602e+04 </wgt>
<wgt id='1847'> +7.4842926e+04 </wgt>
<wgt id='1848'> +7.4461561e+04 </wgt>
<wgt id='1849'> +7.4843746e+04 </wgt>
<wgt id='1850'> +7.4730433e+04 </wgt>
<wgt id='1851'> +7.4655188e+04 </wgt>
<wgt id='1852'> +7.4317541e+04 </wgt>
<wgt id='1853'> +7.4923071e+04 </wgt>
<wgt id='1854'> +7.4658544e+04 </wgt>
<wgt id='1855'> +7.4805353e+04 </wgt>
<wgt id='1856'> +6.8775642e+04 </wgt>
<wgt id='1857'> +6.8763723e+04 </wgt>
<wgt id='1858'> +6.8798116e+04 </wgt>
<wgt id='1859'> +6.8724634e+04 </wgt>
<wgt id='1860'> +6.8775980e+04 </wgt>
<wgt id='1861'> +6.8760833e+04 </wgt>
<wgt id='1862'> +6.8578142e+04 </wgt>
<wgt id='1863'> +6.8871004e+04 </wgt>
<wgt id='1864'> +6.8871033e+04 </wgt>
<wgt id='1865'> +6.8818625e+04 </wgt>
<wgt id='1866'> +6.8819228e+04 </wgt>
<wgt id='1867'> +6.8812215e+04 </wgt>
<wgt id='1868'> +6.8577154e+04 </wgt>
<wgt id='1869'> +6.8738631e+04 </wgt>
<wgt id='1870'> +6.8849180e+04 </wgt>
<wgt id='1871'> +6.8813021e+04 </wgt>
<wgt id='1872'> +6.8717992e+04 </wgt>
<wgt id='1873'> +6.8799574e+04 </wgt>
<wgt id='1874'> +6.8978849e+04 </wgt>
<wgt id='1875'> +6.8966851e+04 </wgt>
<wgt id='1876'> +6.8671827e+04 </wgt>
<wgt id='1877'> +6.8642812e+04 </wgt>
<wgt id='1878'> +6.8606225e+04 </wgt>
<wgt id='1879'> +6.8856696e+04 </wgt>
<wgt id='1880'> +6.8769289e+04 </wgt>
<wgt id='1881'> +6.8852588e+04 </wgt>
<wgt id='1882'> +6.9011453e+04 </wgt>
<wgt id='1883'> +6.8961449e+04 </wgt>
<wgt id='1884'> +6.8739421e+04 </wgt>
<wgt id='1885'> +6.8360174e+04 </wgt>
<wgt id='1886'> +7.7117042e+04 </wgt>
<wgt id='1887'> +8.1920825e+04 </wgt>
<wgt id='1888'> +7.1151658e+04 </wgt>
<wgt id='1889'> +7.5752000e+04 </wgt>
</rwgt>
</event>
</LesHouchesEvents>
